       N       E                     dE             d eps       ncg     rms          ort
DAV:   1     0.132873136405E+04    0.13287E+04   -0.75668E+04    96   0.174E+03
DAV:   2     0.133830776143E+03   -0.11949E+04   -0.11744E+04    96   0.319E+02
DAV:   3    -0.718753332114E+02   -0.20571E+03   -0.20515E+03    96   0.105E+02
DAV:   4    -0.807267832811E+02   -0.88515E+01   -0.88473E+01    96   0.244E+01
DAV:   5    -0.809715829523E+02   -0.24480E+00   -0.24475E+00    96   0.455E+00
SDA:   6    -0.407653063233E+02    0.40206E+02   -0.24475E+00    96   0.963E+02 0.000E+00
CGA:   7    -0.582274647967E+02   -0.17462E+02   -0.17328E+02    96   0.893E+01-0.222E+01
CGA:   8    -0.617168204476E+02   -0.34894E+01    0.17096E+03    96   0.218E+02-0.231E+02
CGA:   9    -0.627853870633E+02   -0.10686E+01   -0.22068E+01    96   0.180E+02-0.345E+01
CGA:  10    -0.638503240589E+02   -0.10649E+01   -0.12191E+01    96   0.216E+02-0.701E+01
CGA:  11    -0.646581225250E+02   -0.80780E+00   -0.55798E+00    96   0.103E+02 0.195E+00
CGA:  12    -0.648696660686E+02   -0.21154E+00   -0.50617E+00    96   0.104E+02-0.548E+01
CGA:  13    -0.651688926163E+02   -0.29923E+00   -0.66052E+00    96   0.468E+01-0.471E+01
CGA:  14    -0.654099508595E+02   -0.24106E+00   -0.22777E+00    96   0.661E+00 0.433E-01
CGA:  15    -0.654771875475E+02   -0.67237E-01   -0.59393E-01    96   0.341E+00 0.352E-01
CGA:  16    -0.655205530907E+02   -0.43366E-01   -0.43866E-01    96   0.498E+00 0.207E-02
CGA:  17    -0.655726546425E+02   -0.52102E-01   -0.50849E-01    96   0.260E+00 0.190E-02
CGA:  18    -0.655925297036E+02   -0.19875E-01   -0.19473E-01    96   0.117E+00 0.263E-02
CGA:  19    -0.656013305411E+02   -0.88008E-02   -0.92651E-02    96   0.570E-01-0.280E-02
CGA:  20    -0.656066533142E+02   -0.53228E-02   -0.53122E-02    96   0.386E-01-0.181E-03
CGA:  21    -0.656098877577E+02   -0.32344E-02   -0.31557E-02    96   0.228E-01 0.151E-03
CGA:  22    -0.656120775361E+02   -0.21898E-02   -0.21609E-02    96   0.100E-01-0.102E-03
CGA:  23    -0.656129243931E+02   -0.84686E-03   -0.84962E-03    96   0.763E-02-0.364E-04
CGA:  24    -0.656136976243E+02   -0.77323E-03   -0.77391E-03    96   0.485E-02 0.609E-05
CGA:  25    -0.656141493345E+02   -0.45171E-03   -0.45107E-03    96   0.250E-02 0.166E-04
CGA:  26    -0.656143292003E+02   -0.17987E-03   -0.18017E-03    96   0.145E-02 0.144E-04
CGA:  27    -0.656145386496E+02   -0.20945E-03   -0.20919E-03    96   0.131E-02 0.194E-04
CGA:  28    -0.656146318495E+02   -0.93200E-04   -0.93906E-04    96   0.573E-03 0.561E-05
   1 F= -.65614632E+02 E0= -.65595590E+02  d E =-.656146E+02
       N       E                     dE             d eps       ncg     rms          ort
SDA:   1    -0.644474201917E+02    0.11671E+01    0.00000E+00    96   0.660E+01 0.000E+00
CGA:   2    -0.656683787795E+02   -0.12210E+01   -0.12146E+01    96   0.381E+01 0.934E-01
CGA:   3    -0.659160217392E+02   -0.24764E+00   -0.24983E+00    96   0.134E+01-0.714E-01
CGA:   4    -0.660700989879E+02   -0.15408E+00   -0.15318E+00    96   0.785E+00-0.385E-01
CGA:   5    -0.661561584644E+02   -0.86059E-01   -0.85609E-01    96   0.417E+00-0.132E-01
CGA:   6    -0.661979655572E+02   -0.41807E-01   -0.41999E-01    96   0.912E-01 0.239E-02
CGA:   7    -0.662177844000E+02   -0.19819E-01   -0.19952E-01    96   0.742E-01-0.130E-02
CGA:   8    -0.662248060121E+02   -0.70216E-02   -0.69784E-02    96   0.381E-01-0.157E-03
CGA:   9    -0.662284112199E+02   -0.36052E-02   -0.36177E-02    96   0.182E-01 0.736E-04
CGA:  10    -0.662308884630E+02   -0.24772E-02   -0.24779E-02    96   0.123E-01-0.453E-04
CGA:  11    -0.662320666590E+02   -0.11782E-02   -0.11787E-02    96   0.279E-02-0.126E-04
CGA:  12    -0.662327198529E+02   -0.65319E-03   -0.65295E-03    96   0.184E-02 0.200E-05
CGA:  13    -0.662328684111E+02   -0.14856E-03   -0.14866E-03    96   0.946E-03 0.188E-05
CGA:  14    -0.662329976240E+02   -0.12921E-03   -0.12915E-03    96   0.614E-03 0.714E-05
CGA:  15    -0.662330590340E+02   -0.61410E-04   -0.61593E-04    96   0.251E-03 0.656E-05
   2 F= -.66233059E+02 E0= -.66213520E+02  d E =-.662331E+02
       N       E                     dE             d eps       ncg     rms          ort
SDA:   1     0.132021722197E+02    0.79435E+02    0.00000E+00    96   0.300E+03 0.000E+00
CGA:   2    -0.468869084472E+02   -0.60089E+02   -0.60638E+02    96   0.932E+02 0.401E+01
CGA:   3    -0.565884829697E+02   -0.97016E+01   -0.10635E+02    96   0.891E+02 0.188E+02
CGA:   4    -0.619855858005E+02   -0.53971E+01   -0.81034E+01    96   0.296E+02-0.326E+01
CGA:   5    -0.657639876043E+02   -0.37784E+01   -0.40374E+01    96   0.286E+02-0.861E+01
CGA:   6    -0.672302406832E+02   -0.14663E+01   -0.13532E+01    96   0.251E+02 0.458E+01
CGA:   7    -0.674425862920E+02   -0.21235E+00   -0.10003E+01    96   0.366E+02-0.270E+02
CGA:   8    -0.686727464074E+02   -0.12302E+01   -0.25138E+01    96   0.556E+01-0.721E+00
CGA:   9    -0.692316131302E+02   -0.55887E+00   -0.53657E+00    96   0.273E+01-0.212E+00
CGA:  10    -0.694732887539E+02   -0.24168E+00   -0.24784E+00    96   0.375E+01 0.578E-01
CGA:  11    -0.696640870839E+02   -0.19080E+00   -0.18619E+00    96   0.153E+01 0.168E-01
CGA:  12    -0.698008881623E+02   -0.13680E+00   -0.13696E+00    96   0.818E+00-0.548E-02
CGA:  13    -0.698692839771E+02   -0.68396E-01   -0.67206E-01    96   0.615E+00-0.562E-02
CGA:  14    -0.699207109257E+02   -0.51427E-01   -0.50922E-01    96   0.571E+00-0.421E-02
CGA:  15    -0.699524710725E+02   -0.31760E-01   -0.31606E-01    96   0.305E+00 0.859E-03
CGA:  16    -0.699769147132E+02   -0.24444E-01   -0.24896E-01    96   0.220E+00 0.341E-02
CGA:  17    -0.699904280427E+02   -0.13513E-01   -0.13561E-01    96   0.116E+00-0.522E-03
CGA:  18    -0.700018971286E+02   -0.11469E-01   -0.11456E-01    96   0.141E+00-0.156E-02
CGA:  19    -0.700104211106E+02   -0.85240E-02   -0.85170E-02    96   0.688E-01 0.187E-03
CGA:  20    -0.700155075908E+02   -0.50865E-02   -0.51437E-02    96   0.483E-01 0.322E-03
CGA:  21    -0.700183810797E+02   -0.28735E-02   -0.29065E-02    96   0.164E-01-0.173E-03
CGA:  22    -0.700195441667E+02   -0.11631E-02   -0.11554E-02    96   0.133E-01 0.175E-04
CGA:  23    -0.700206192270E+02   -0.10751E-02   -0.10751E-02    96   0.845E-02 0.578E-04
CGA:  24    -0.700212478778E+02   -0.62865E-03   -0.63163E-03    96   0.699E-02 0.232E-04
CGA:  25    -0.700217846627E+02   -0.53678E-03   -0.53626E-03    96   0.369E-02-0.405E-04
CGA:  26    -0.700220340925E+02   -0.24943E-03   -0.24883E-03    96   0.269E-02 0.807E-05
CGA:  27    -0.700222623877E+02   -0.22830E-03   -0.22857E-03    96   0.193E-02 0.373E-04
CGA:  28    -0.700224047424E+02   -0.14235E-03   -0.14253E-03    96   0.155E-02-0.284E-05
CGA:  29    -0.700225367976E+02   -0.13206E-03   -0.13185E-03    96   0.988E-03-0.371E-04
CGA:  30    -0.700226011739E+02   -0.64376E-04   -0.64197E-04    96   0.694E-03-0.502E-05
   3 F= -.70022601E+02 E0= -.70000571E+02  d E =-.700226E+02
       N       E                     dE             d eps       ncg     rms          ort
SDA:   1     0.122687575723E+02    0.82291E+02    0.00000E+00    96   0.295E+03 0.000E+00
CGA:   2    -0.495425906056E+02   -0.61811E+02   -0.66505E+02    96   0.182E+03-0.347E+02
CGA:   3    -0.585440414546E+02   -0.90015E+01   -0.11421E+02    96   0.689E+02 0.280E+02
CGA:   4    -0.659044940371E+02   -0.73605E+01   -0.74100E+01    96   0.182E+02 0.191E+02
CGA:   5    -0.702174248404E+02   -0.43129E+01   -0.53440E+01    96   0.320E+02-0.143E+02
CGA:   6    -0.714109670841E+02   -0.11935E+01   -0.19873E+01    96   0.629E+01 0.419E-01
CGA:   7    -0.718351247059E+02   -0.42416E+00   -0.10815E+01    96   0.259E+02-0.810E+01
CGA:   8    -0.725235838657E+02   -0.68846E+00   -0.14227E+01    96   0.294E+01-0.392E+01
CGA:   9    -0.727747069454E+02   -0.25112E+00   -0.24671E+00    96   0.228E+01-0.123E+01
CGA:  10    -0.732903591818E+02   -0.51565E+00   -0.51464E+00    96   0.444E+00 0.800E-02
CGA:  11    -0.733619064554E+02   -0.71547E-01   -0.73994E-01    96   0.388E+00-0.397E-01
CGA:  12    -0.733883386780E+02   -0.26432E-01   -0.27450E-01    96   0.682E-01 0.930E-03
CGA:  13    -0.733971621382E+02   -0.88235E-02   -0.87562E-02    96   0.617E-01 0.309E-02
CGA:  14    -0.734050266925E+02   -0.78646E-02   -0.78886E-02    96   0.336E-01-0.199E-02
CGA:  15    -0.734092172027E+02   -0.41905E-02   -0.41889E-02    96   0.246E-01 0.760E-04
CGA:  16    -0.734122719411E+02   -0.30547E-02   -0.30582E-02    96   0.705E-02-0.242E-03
CGA:  17    -0.734133364420E+02   -0.10645E-02   -0.10600E-02    96   0.803E-02 0.787E-04
CGA:  18    -0.734141572989E+02   -0.82086E-03   -0.81806E-03    96   0.178E-02-0.123E-04
CGA:  19    -0.734145110304E+02   -0.35373E-03   -0.35414E-03    96   0.237E-02-0.659E-05
CGA:  20    -0.734147445390E+02   -0.23351E-03   -0.23324E-03    96   0.683E-03 0.824E-05
CGA:  21    -0.734148374511E+02   -0.92912E-04   -0.93034E-04    96   0.575E-03-0.115E-04
   4 F= -.73414837E+02 E0= -.73398759E+02  d E =-.734148E+02
       N       E                     dE             d eps       ncg     rms          ort
SDA:   1    -0.734117949806E+02    0.29496E-02    0.00000E+00    96   0.705E-01 0.000E+00
   5 F= -.73411795E+02 E0= -.73395429E+02  d E =-.734118E+02
