Writing VASP input files
Starting VASP for initial step...
 running   32 mpi-ranks, with    1 threads/rank, on    1 nodes
 distrk:  each k-point on   32 cores,    1 groups
 distr:  one band on    1 cores,   32 groups
 vasp.6.4.0 14Feb23 (build Oct 13 2023 04:11:21) complex                        
  
 POSCAR found type information on POSCAR ClK Na
 POSCAR found :  3 types and      28 ions
 scaLAPACK will be used
 WARNING: PSMAXN for non-local potential too small
 LDA part: xc-table for Pade appr. of Perdew
 POSCAR, INCAR and KPOINTS ok, starting setup
 FFT: planning ... GRIDC
 FFT: planning ... GRID_SOFT
 FFT: planning ... GRID
 WAVECAR not read
 augmentation electrons   160.011604496432     
 soft         electrons  0.000000000000000E+000
 total        electrons   160.011604496432     
 augmentation electrons   296.674977666314     
 soft         electrons  0.000000000000000E+000
 total        electrons   296.674977666314     
 WARNING: random wavefunctions but no delay for mixing, default for NELMDL
 entering main loop
       N       E                     dE             d eps       ncg     rms          ort
DAV:   1     0.132873136405E+04    0.13287E+04   -0.75668E+04    96   0.174E+03
DAV:   2     0.133830776143E+03   -0.11949E+04   -0.11744E+04    96   0.319E+02
DAV:   3    -0.718753332114E+02   -0.20571E+03   -0.20515E+03    96   0.105E+02
DAV:   4    -0.807267832811E+02   -0.88515E+01   -0.88473E+01    96   0.244E+01
DAV:   5    -0.809715829523E+02   -0.24480E+00   -0.24475E+00    96   0.455E+00
 gam= 0.000 g(H,U,f)=  0.871E+02 0.922E+01 0.214E-11 ort(H,U,f) = 0.000E+00 0.000E+00 0.000E+00
SDA:   6    -0.407653063233E+02    0.40206E+02   -0.24475E+00    96   0.963E+02 0.000E+00
 gam= 0.000 trial= 0.400  step= 0.360 mean= 0.400
 gam= 0.093 g(H,U,f)=  0.659E+01 0.234E+01 0.111E-11 ort(H,U,f) =-0.928E+01 0.705E+01 0.346E-11
CGA:   7    -0.582274647967E+02   -0.17462E+02   -0.17328E+02    96   0.893E+01-0.222E+01
 gam= 0.093 trial= 0.398  step=****** mean= 0.398
 BOPT < 0, no correction made
 gam= 0.000 g(H,U,f)=  0.114E+02 0.103E+02 0.336E-01 ort(H,U,f) = 0.679E+00-0.236E+02-0.174E+00
CGA:   8    -0.617168204476E+02   -0.34894E+01    0.17096E+03    96   0.218E+02-0.231E+02
 gam= 0.000 trial= 0.398  step= 0.203 mean= 0.398
 gam= 0.826 g(H,U,f)=  0.753E+00 0.156E+02 0.160E+01 ort(H,U,f) = 0.901E-01-0.368E+01 0.134E+00
CGA:   9    -0.627853870633E+02   -0.10686E+01   -0.22068E+01    96   0.180E+02-0.345E+01
 gam= 0.826 trial= 0.388  step= 0.161 mean= 0.388
 gam= 1.202 g(H,U,f)=  0.365E+01 0.159E+02 0.209E+01 ort(H,U,f) = 0.158E+01-0.810E+01-0.486E+00
CGA:  10    -0.638503240589E+02   -0.10649E+01   -0.12191E+01    96   0.216E+02-0.701E+01
 gam= 1.202 trial= 0.377  step= 0.085 mean= 0.377
 gam= 0.475 g(H,U,f)=  0.200E+01 0.823E+01 0.433E-01 ort(H,U,f) = 0.170E+01-0.916E+00-0.588E+00
CGA:  11    -0.646581225250E+02   -0.80780E+00   -0.55798E+00    96   0.103E+02 0.195E+00
 gam= 0.475 trial= 0.362  step= 0.098 mean= 0.362
 gam= 0.000 g(H,U,f)=  0.126E+01 0.861E+01 0.552E+00 ort(H,U,f) =-0.202E+00-0.584E+01 0.569E+00
CGA:  12    -0.648696660686E+02   -0.21154E+00   -0.50617E+00    96   0.104E+02-0.548E+01
 gam= 0.000 trial= 0.349  step= 0.127 mean= 0.349
 gam= 0.448 g(H,U,f)=  0.552E+00 0.314E+01 0.983E+00 ort(H,U,f) =-0.845E-01-0.291E+01-0.172E+01
CGA:  13    -0.651688926163E+02   -0.29923E+00   -0.66052E+00    96   0.468E+01-0.471E+01
 gam= 0.448 trial= 0.338  step= 0.178 mean= 0.338
 gam= 0.141 g(H,U,f)=  0.128E+00 0.350E+00 0.183E+00 ort(H,U,f) = 0.999E-01-0.988E-01 0.422E-01
CGA:  14    -0.654099508595E+02   -0.24106E+00   -0.22777E+00    96   0.661E+00 0.433E-01
 gam= 0.141 trial= 0.330  step= 0.178 mean= 0.330
 gam= 0.516 g(H,U,f)=  0.852E-01 0.173E+00 0.831E-01 ort(H,U,f) = 0.743E-01 0.940E-01-0.133E+00
CGA:  15    -0.654771875475E+02   -0.67237E-01   -0.59393E-01    96   0.341E+00 0.352E-01
 gam= 0.516 trial= 0.322  step= 0.244 mean= 0.322
 gam= 1.459 g(H,U,f)=  0.847E-01 0.413E+00 0.260E-03 ort(H,U,f) = 0.728E-01-0.695E-01-0.128E-02
CGA:  16    -0.655205530907E+02   -0.43366E-01   -0.43866E-01    96   0.498E+00 0.207E-02
 gam= 1.459 trial= 0.318  step= 0.203 mean= 0.318
 gam= 0.522 g(H,U,f)=  0.510E-01 0.190E+00 0.190E-01 ort(H,U,f) = 0.433E-01-0.240E-01-0.174E-01
CGA:  17    -0.655726546425E+02   -0.52102E-01   -0.50849E-01    96   0.260E+00 0.190E-02
 gam= 0.522 trial= 0.313  step= 0.149 mean= 0.313
 gam= 0.448 g(H,U,f)=  0.274E-01 0.854E-01 0.368E-02 ort(H,U,f) = 0.272E-01-0.213E-01-0.326E-02
CGA:  18    -0.655925297036E+02   -0.19875E-01   -0.19473E-01    96   0.117E+00 0.263E-02
 gam= 0.448 trial= 0.304  step= 0.157 mean= 0.304
 gam= 0.489 g(H,U,f)=  0.160E-01 0.409E-01 0.755E-04 ort(H,U,f) = 0.161E-01-0.185E-01-0.430E-03
CGA:  19    -0.656013305411E+02   -0.88008E-02   -0.92651E-02    96   0.570E-01-0.280E-02
 gam= 0.489 trial= 0.297  step= 0.191 mean= 0.297
 gam= 0.677 g(H,U,f)=  0.115E-01 0.219E-01 0.519E-02 ort(H,U,f) = 0.845E-02-0.765E-02-0.981E-03
CGA:  20    -0.656066533142E+02   -0.53228E-02   -0.53122E-02    96   0.386E-01-0.181E-03
 gam= 0.677 trial= 0.292  step= 0.164 mean= 0.292
 gam= 0.591 g(H,U,f)=  0.764E-02 0.139E-01 0.123E-02 ort(H,U,f) = 0.702E-02-0.463E-02-0.224E-02
CGA:  21    -0.656098877577E+02   -0.32344E-02   -0.31557E-02    96   0.228E-01 0.151E-03
 gam= 0.591 trial= 0.285  step= 0.189 mean= 0.285
 gam= 0.440 g(H,U,f)=  0.328E-02 0.412E-02 0.263E-02 ort(H,U,f) = 0.303E-02-0.298E-02-0.148E-03
CGA:  22    -0.656120775361E+02   -0.21898E-02   -0.21609E-02    96   0.100E-01-0.102E-03
 gam= 0.440 trial= 0.281  step= 0.170 mean= 0.281
 gam= 0.761 g(H,U,f)=  0.211E-02 0.468E-02 0.838E-03 ort(H,U,f) = 0.216E-02-0.762E-03-0.143E-02
CGA:  23    -0.656129243931E+02   -0.84686E-03   -0.84962E-03    96   0.763E-02-0.364E-04
 gam= 0.761 trial= 0.275  step= 0.204 mean= 0.275
 gam= 0.636 g(H,U,f)=  0.123E-02 0.232E-02 0.130E-02 ort(H,U,f) = 0.149E-02-0.116E-02-0.325E-03
CGA:  24    -0.656136976243E+02   -0.77323E-03   -0.77391E-03    96   0.485E-02 0.609E-05
 gam= 0.636 trial= 0.271  step= 0.186 mean= 0.271
 gam= 0.515 g(H,U,f)=  0.671E-03 0.167E-02 0.158E-03 ort(H,U,f) = 0.644E-03-0.244E-03-0.383E-03
CGA:  25    -0.656141493345E+02   -0.45171E-03   -0.45107E-03    96   0.250E-02 0.166E-04
 gam= 0.515 trial= 0.267  step= 0.144 mean= 0.267
 gam= 0.583 g(H,U,f)=  0.466E-03 0.963E-03 0.261E-04 ort(H,U,f) = 0.515E-03-0.486E-03-0.138E-04
CGA:  26    -0.656143292003E+02   -0.17987E-03   -0.18017E-03    96   0.145E-02 0.144E-04
 gam= 0.583 trial= 0.261  step= 0.286 mean= 0.261
 gam= 0.900 g(H,U,f)=  0.239E-03 0.101E-02 0.607E-04 ort(H,U,f) = 0.306E-03-0.261E-03-0.256E-04
CGA:  27    -0.656145386496E+02   -0.20945E-03   -0.20919E-03    96   0.131E-02 0.194E-04
 gam= 0.900 trial= 0.262  step= 0.142 mean= 0.262
 gam= 0.437 g(H,U,f)=  0.152E-03 0.394E-03 0.266E-04 ort(H,U,f) = 0.234E-03-0.203E-03-0.257E-04
CGA:  28    -0.656146318495E+02   -0.93200E-04   -0.93906E-04    96   0.573E-03 0.561E-05
 gam= 0.437 trial= 0.256  step= 0.180 mean= 0.256
 final diagonalization
FORCES:
     0.0752915     0.2466485    -0.3566266
     0.3372038     0.5103210     0.8257857
    -0.5917004     0.3751871    -0.1290247
    -0.7701692     0.5022897     0.6373536
     0.6852952    -0.3473627    -0.1149294
     1.2402304    -0.9974068    -0.6118623
    -1.0988248    -0.2198629     0.0169711
     0.2376393    -0.0236246    -0.0922929
    -0.0587726     0.6055171    -1.1784546
     1.0953679     0.2168301    -0.7691209
     0.0602299     0.4418196     0.5063567
    -0.5243006    -0.5574953    -0.3072281
    -0.5205689     0.4865978     0.6329960
    -0.0719576    -0.3905961     0.3712682
     1.7539600     0.0047828    -0.7360871
     0.5479266     0.5296199     0.3322748
     0.3017639    -0.8434201    -0.6976334
     0.5353327     1.2412584     0.9796841
     1.6261394     0.5403272     0.0303751
    -1.6267516    -1.0969588     0.7902549
    -0.2380534    -0.6872784    -0.6947067
    -0.9660349    -0.6819291    -0.5666999
    -0.6088684     0.5032900     1.3655286
    -0.6125315     0.6846163     0.4393755
     1.1469958    -0.4312866    -0.4249891
    -1.1182038     1.0966038     0.8328223
     0.0962978    -1.2428423    -0.3388306
    -0.9329364    -0.4656455    -0.7425603
   1 F= -.65614632E+02 E0= -.65595590E+02  d E =-.656146E+02
POSITIONS: reading from stdin
Inputting positions...
New scaled positions
     0.9657628     0.0299701     0.7506832
     0.1157671     0.8410393     0.0579607
     0.6454553     0.5089171     0.2956109
     0.6765849     0.8220121     0.8650967
     0.1215538     0.1905716     0.4804615
     0.1627201     0.4933900     0.9591063
     0.4912671     0.9816095     0.6237841
     0.9248656     0.3058544     0.2250222
     0.7453288     0.7575735     0.5306267
     0.9725829     0.6901129     0.7661646
     0.4241044     0.6856839     0.0923370
     0.7825577     0.5151857     0.9851581
     0.4746768     0.2968324     0.4959450
     0.8523083     0.4255147     0.5629013
     0.4220079     0.6991195     0.4457116
     0.7747775     0.0999960     0.4667421
     0.6845205     0.8546857     0.2148103
     0.4787977     0.3580796     0.0316444
     0.5462467     0.5351056     0.7287892
     0.1920780     0.5002257     0.6039169
     0.2564417     0.4419290     0.2774974
     0.9627234     0.6324049     0.2861452
     0.3013844     0.7660773     0.7854656
     0.3653952     0.0095219     0.3116087
     0.6723886     0.2183833     0.7825899
     0.1149875     0.8480722     0.5023437
     0.4362488     0.0113612     0.9821932
     0.2894548     0.2253096     0.7710630
Old scaled positions
     0.9656526     0.0296092     0.7512050
     0.1152738     0.8402927     0.0567526
     0.6463210     0.5083682     0.2957997
     0.6777116     0.8212773     0.8641643
     0.1205513     0.1910798     0.4806296
     0.1609057     0.4948492     0.9600014
     0.4928746     0.9819311     0.6237593
     0.9245179     0.3058889     0.2251572
     0.7454148     0.7566876     0.5323508
     0.9709805     0.6897957     0.7672898
     0.4240163     0.6850376     0.0915962
     0.7833247     0.5160013     0.9856075
     0.4754384     0.2961206     0.4950190
     0.8524136     0.4260861     0.5623581
     0.4194419     0.6991125     0.4467884
     0.7739759     0.0992212     0.4662560
     0.6840790     0.8559196     0.2158310
     0.4780146     0.3562637     0.0302111
     0.5438677     0.5343151     0.7287448
     0.1944579     0.5018305     0.6027608
     0.2567899     0.4429344     0.2785137
     0.9641367     0.6334025     0.2869743
     0.3022751     0.7653410     0.7834679
     0.3662913     0.0085203     0.3109659
     0.6707106     0.2190143     0.7832116
     0.1166234     0.8464680     0.5011253
     0.4361080     0.0131794     0.9826889
     0.2908196     0.2259908     0.7721493
POSITIONS: read from stdin
LATTICE: reading from stdin
New   direct lattice vectors                   reciprocal lattice vectors
       9.7649645    0.0000000    0.0000000       0.1024069    0.0000000    0.0000000
       0.0000000    9.7649645    0.0000000       0.0000000    0.1024069    0.0000000
       0.0000000    0.0000000    9.7649645       0.0000000    0.0000000    0.1024069


Old   direct lattice vectors                   reciprocal lattice vectors
       9.7649645    0.0000000    0.0000000       0.1024069    0.0000000    0.0000000
       0.0000000    9.7649645    0.0000000       0.0000000    0.1024069    0.0000000
       0.0000000    0.0000000    9.7649645       0.0000000    0.0000000    0.1024069


LATTICE: read from stdin
 bond charge predicted
 wavefunctions rotated
       N       E                     dE             d eps       ncg     rms          ort
 gam= 0.000 g(H,U,f)=  0.617E+01 0.397E+00 0.257E-01 ort(H,U,f) = 0.000E+00 0.000E+00 0.000E+00
SDA:   1    -0.644474201917E+02    0.11671E+01    0.00000E+00    96   0.660E+01 0.000E+00
 gam= 0.000 trial= 0.252  step= 0.368 mean= 0.252
 gam= 0.577 g(H,U,f)=  0.127E+01 0.207E+01 0.468E+00 ort(H,U,f) = 0.896E+00-0.747E+00-0.559E-01
CGA:   2    -0.656683787795E+02   -0.12210E+01   -0.12146E+01    96   0.381E+01 0.934E-01
 gam= 0.577 trial= 0.258  step= 0.129 mean= 0.258
 gam= 0.353 g(H,U,f)=  0.697E+00 0.449E+00 0.198E+00 ort(H,U,f) = 0.630E+00-0.410E+00-0.291E+00
CGA:   3    -0.659160217392E+02   -0.24764E+00   -0.24983E+00    96   0.134E+01-0.714E-01
 gam= 0.353 trial= 0.252  step= 0.232 mean= 0.252
 gam= 0.584 g(H,U,f)=  0.347E+00 0.434E+00 0.384E-02 ort(H,U,f) = 0.313E+00-0.343E+00-0.806E-02
CGA:   4    -0.660700989879E+02   -0.15408E+00   -0.15318E+00    96   0.785E+00-0.385E-01
 gam= 0.584 trial= 0.251  step= 0.225 mean= 0.251
 gam= 0.531 g(H,U,f)=  0.150E+00 0.260E+00 0.660E-02 ort(H,U,f) = 0.159E+00-0.175E+00 0.216E-02
CGA:   5    -0.661561584644E+02   -0.86059E-01   -0.85609E-01    96   0.417E+00-0.132E-01
 gam= 0.531 trial= 0.250  step= 0.205 mean= 0.250
 gam= 0.219 g(H,U,f)=  0.647E-01 0.224E-01 0.406E-02 ort(H,U,f) = 0.499E-01-0.404E-01-0.708E-02
CGA:   6    -0.661979655572E+02   -0.41807E-01   -0.41999E-01    96   0.912E-01 0.239E-02
 gam= 0.219 trial= 0.247  step= 0.435 mean= 0.247
 gam= 0.814 g(H,U,f)=  0.257E-01 0.471E-01 0.141E-02 ort(H,U,f) = 0.168E-01-0.166E-01-0.142E-02
CGA:   7    -0.662177844000E+02   -0.19819E-01   -0.19952E-01    96   0.742E-01-0.130E-02
 gam= 0.814 trial= 0.257  step= 0.191 mean= 0.257
 gam= 0.513 g(H,U,f)=  0.146E-01 0.185E-01 0.498E-02 ort(H,U,f) = 0.131E-01-0.141E-01 0.856E-03
CGA:   8    -0.662248060121E+02   -0.70216E-02   -0.69784E-02    96   0.381E-01-0.157E-03
 gam= 0.513 trial= 0.253  step= 0.191 mean= 0.253
 gam= 0.478 g(H,U,f)=  0.806E-02 0.509E-02 0.504E-02 ort(H,U,f) = 0.863E-02-0.323E-02-0.533E-02
CGA:   9    -0.662284112199E+02   -0.36052E-02   -0.36177E-02    96   0.182E-01 0.736E-04
 gam= 0.478 trial= 0.250  step= 0.272 mean= 0.250
 gam= 0.678 g(H,U,f)=  0.332E-02 0.797E-02 0.103E-02 ort(H,U,f) = 0.353E-02-0.245E-02-0.112E-02
CGA:  10    -0.662308884630E+02   -0.24772E-02   -0.24779E-02    96   0.123E-01-0.453E-04
 gam= 0.678 trial= 0.251  step= 0.192 mean= 0.251
 gam= 0.227 g(H,U,f)=  0.162E-02 0.116E-02 0.605E-05 ort(H,U,f) = 0.122E-02-0.121E-02-0.217E-04
CGA:  11    -0.662320666590E+02   -0.11782E-02   -0.11787E-02    96   0.279E-02-0.126E-04
 gam= 0.227 trial= 0.248  step= 0.468 mean= 0.248
 gam= 0.657 g(H,U,f)=  0.570E-03 0.111E-02 0.156E-03 ort(H,U,f) = 0.268E-03-0.261E-03-0.489E-05
CGA:  12    -0.662327198529E+02   -0.65319E-03   -0.65295E-03    96   0.184E-02 0.200E-05
 gam= 0.657 trial= 0.259  step= 0.162 mean= 0.259
 gam= 0.515 g(H,U,f)=  0.354E-03 0.393E-03 0.199E-03 ort(H,U,f) = 0.321E-03-0.146E-03-0.173E-03
CGA:  13    -0.662328684111E+02   -0.14856E-03   -0.14866E-03    96   0.946E-03 0.188E-05
 gam= 0.515 trial= 0.254  step= 0.273 mean= 0.254
 gam= 0.649 g(H,U,f)=  0.171E-03 0.406E-03 0.366E-04 ort(H,U,f) = 0.132E-03-0.775E-04-0.470E-04
CGA:  14    -0.662329976240E+02   -0.12921E-03   -0.12915E-03    96   0.614E-03 0.714E-05
 gam= 0.649 trial= 0.255  step= 0.199 mean= 0.255
 gam= 0.409 g(H,U,f)=  0.101E-03 0.140E-03 0.964E-05 ort(H,U,f) = 0.747E-04-0.712E-04 0.304E-05
CGA:  15    -0.662330590340E+02   -0.61410E-04   -0.61593E-04    96   0.251E-03 0.656E-05
 gam= 0.409 trial= 0.253  step= 0.276 mean= 0.253
 final diagonalization
FORCES:
     0.0697014     0.2591514    -0.3463985
     0.3345399     0.4966105     0.7969698
    -0.5581193     0.3504530    -0.1113379
    -0.7424397     0.4892067     0.6259287
     0.6607994    -0.3499182    -0.1238742
     1.2265179    -0.9814458    -0.6084322
    -1.1017895    -0.2190224     0.0116644
     0.2241299    -0.0146400    -0.0808463
    -0.0320306     0.5853739    -1.1622037
     1.0814751     0.2103728    -0.7736704
     0.0555176     0.4357892     0.5132244
    -0.5201590    -0.5568194    -0.3057367
    -0.4978618     0.5024389     0.6309281
    -0.0916484    -0.3845070     0.3637343
     1.6476905    -0.0210834    -0.6845902
     0.5335646     0.5222660     0.3058439
     0.2934465    -0.8139871    -0.6877038
     0.5436561     1.1873997     0.9138468
     1.5867743     0.5311624     0.0162379
    -1.5674732    -1.0154607     0.7431134
    -0.2490945    -0.6525587    -0.6426009
    -0.9334887    -0.6760168    -0.5377054
    -0.6142443     0.4515522     1.3161335
    -0.6032174     0.6772256     0.4394274
     1.1209360    -0.4102220    -0.3996017
    -1.0846685     1.0544882     0.8327740
     0.1104195    -1.2034602    -0.3292861
    -0.8929337    -0.4543488    -0.7158386
   2 F= -.66233059E+02 E0= -.66213520E+02  d E =-.662331E+02
POSITIONS: reading from stdin
Inputting positions...
New scaled positions
     0.9664733     0.0326059     0.7471551
     0.1191732     0.8460972     0.0660790
     0.6397676     0.5124892     0.2944743
     0.6690219     0.8269946     0.8714707
     0.1282852     0.1870100     0.4792021
     0.1752084     0.4833961     0.9529119
     0.4800515     0.9793797     0.6239039
     0.9271496     0.3057037     0.2241971
     0.7449978     0.7635362     0.5187927
     0.9835947     0.6922556     0.7582896
     0.4246704     0.6901213     0.0975603
     0.7772618     0.5095173     0.9820454
     0.4696045     0.3019443     0.5023682
     0.8513789     0.4215993     0.5666054
     0.4388006     0.6989096     0.4387331
     0.7802118     0.1053140     0.4698604
     0.6875092     0.8463940     0.2078078
     0.4843305     0.3701771     0.0409593
     0.5624070     0.5405144     0.7289571
     0.1761105     0.4898735     0.6114903
     0.2539079     0.4352797     0.2709462
     0.9532147     0.6255221     0.2806661
     0.2951325     0.7706836     0.7988728
     0.3592528     0.0164173     0.3160820
     0.6838044     0.2142034     0.7785173
     0.1039396     0.8588145     0.5108212
     0.4373703     0.9991029     0.9788393
     0.2803575     0.2206823     0.7637709
Old scaled positions
     0.9656526     0.0296092     0.7512050
     0.1152738     0.8402927     0.0567526
     0.6463210     0.5083682     0.2957997
     0.6777116     0.8212773     0.8641643
     0.1205513     0.1910798     0.4806296
     0.1609057     0.4948492     0.9600014
     0.4928746     0.9819311     0.6237593
     0.9245179     0.3058889     0.2251572
     0.7454148     0.7566876     0.5323508
     0.9709805     0.6897957     0.7672898
     0.4240163     0.6850376     0.0915962
     0.7833247     0.5160013     0.9856075
     0.4754384     0.2961206     0.4950190
     0.8524136     0.4260861     0.5623581
     0.4194419     0.6991125     0.4467884
     0.7739759     0.0992212     0.4662560
     0.6840790     0.8559196     0.2158310
     0.4780146     0.3562637     0.0302111
     0.5438677     0.5343151     0.7287448
     0.1944579     0.5018305     0.6027608
     0.2567899     0.4429344     0.2785137
     0.9641367     0.6334025     0.2869743
     0.3022751     0.7653410     0.7834679
     0.3662913     0.0085203     0.3109659
     0.6707106     0.2190143     0.7832116
     0.1166234     0.8464680     0.5011253
     0.4361080     0.0131794     0.9826889
     0.2908196     0.2259908     0.7721493
POSITIONS: read from stdin
LATTICE: reading from stdin
New   direct lattice vectors                   reciprocal lattice vectors
       9.7649645    0.0000000    0.0000000       0.1024069    0.0000000    0.0000000
       0.0000000    9.7649645    0.0000000       0.0000000    0.1024069    0.0000000
       0.0000000    0.0000000    9.7649645       0.0000000    0.0000000    0.1024069


Old   direct lattice vectors                   reciprocal lattice vectors
       9.7649645    0.0000000    0.0000000       0.1024069    0.0000000    0.0000000
       0.0000000    9.7649645    0.0000000       0.0000000    0.1024069    0.0000000
       0.0000000    0.0000000    9.7649645       0.0000000    0.0000000    0.1024069


LATTICE: read from stdin
 bond charge predicted
 wavefunctions rotated
       N       E                     dE             d eps       ncg     rms          ort
 gam= 0.000 g(H,U,f)=  0.276E+03 0.213E+02 0.247E+01 ort(H,U,f) = 0.000E+00 0.000E+00 0.000E+00
SDA:   1     0.132021722197E+02    0.79435E+02    0.00000E+00    96   0.300E+03 0.000E+00
 gam= 0.000 trial= 0.254  step= 0.405 mean= 0.254
 gam= 0.311 g(H,U,f)=  0.579E+02 0.264E+02 0.898E+01 ort(H,U,f) = 0.201E+02-0.130E+02-0.305E+01
CGA:   2    -0.468869084472E+02   -0.60089E+02   -0.60638E+02    96   0.932E+02 0.401E+01
 gam= 0.311 trial= 0.261  step= 0.225 mean= 0.261
 gam= 0.956 g(H,U,f)=  0.291E+02 0.439E+02 0.160E+02 ort(H,U,f) = 0.208E+02-0.802E+00-0.117E+01
CGA:   3    -0.565884829697E+02   -0.97016E+01   -0.10635E+02    96   0.891E+02 0.188E+02
 gam= 0.956 trial= 0.260  step= 0.151 mean= 0.260
 gam= 0.332 g(H,U,f)=  0.193E+02 0.646E+01 0.381E+01 ort(H,U,f) = 0.694E+01-0.742E+01-0.279E+01
CGA:   4    -0.619855858005E+02   -0.53971E+01   -0.81034E+01    96   0.296E+02-0.326E+01
 gam= 0.332 trial= 0.254  step= 0.283 mean= 0.254
 gam= 0.967 g(H,U,f)=  0.893E+01 0.152E+02 0.446E+01 ort(H,U,f) = 0.190E+01-0.677E+01-0.374E+01
CGA:   5    -0.657639876043E+02   -0.37784E+01   -0.40374E+01    96   0.286E+02-0.861E+01
 gam= 0.967 trial= 0.256  step= 0.133 mean= 0.256
 gam= 0.876 g(H,U,f)=  0.596E+01 0.170E+02 0.209E+01 ort(H,U,f) = 0.860E+00 0.301E+01 0.713E+00
CGA:   6    -0.672302406832E+02   -0.14663E+01   -0.13532E+01    96   0.251E+02 0.458E+01
 gam= 0.876 trial= 0.249  step= 0.069 mean= 0.249
 gam= 0.000 g(H,U,f)=  0.547E+01 0.295E+02 0.165E+01 ort(H,U,f) = 0.525E+00-0.263E+02-0.128E+01
CGA:   7    -0.674425862920E+02   -0.21235E+00   -0.10003E+01    96   0.366E+02-0.270E+02
 gam= 0.000 trial= 0.240  step= 0.137 mean= 0.240
 gam= 0.152 g(H,U,f)=  0.230E+01 0.306E+01 0.195E+00 ort(H,U,f) = 0.152E+01-0.232E+01 0.867E-01
CGA:   8    -0.686727464074E+02   -0.12302E+01   -0.25138E+01    96   0.556E+01-0.721E+00
 gam= 0.152 trial= 0.235  step= 0.197 mean= 0.235
 gam= 0.490 g(H,U,f)=  0.104E+01 0.151E+01 0.174E+00 ort(H,U,f) = 0.118E+01-0.120E+01-0.193E+00
CGA:   9    -0.692316131302E+02   -0.55887E+00   -0.53657E+00    96   0.273E+01-0.212E+00
 gam= 0.490 trial= 0.233  step= 0.189 mean= 0.233
 gam= 1.377 g(H,U,f)=  0.608E+00 0.310E+01 0.419E-01 ort(H,U,f) = 0.882E+00-0.806E+00-0.178E-01
CGA:  10    -0.694732887539E+02   -0.24168E+00   -0.24784E+00    96   0.375E+01 0.578E-01
 gam= 1.377 trial= 0.231  step= 0.097 mean= 0.231
 gam= 0.407 g(H,U,f)=  0.359E+00 0.115E+01 0.213E-01 ort(H,U,f) = 0.778E+00-0.753E+00-0.766E-02
CGA:  11    -0.696640870839E+02   -0.19080E+00   -0.18619E+00    96   0.153E+01 0.168E-01
 gam= 0.407 trial= 0.224  step= 0.179 mean= 0.224
 gam= 0.536 g(H,U,f)=  0.255E+00 0.495E+00 0.688E-01 ort(H,U,f) = 0.235E+00-0.196E+00-0.448E-01
CGA:  12    -0.698008881623E+02   -0.13680E+00   -0.13696E+00    96   0.818E+00-0.548E-02
 gam= 0.536 trial= 0.222  step= 0.165 mean= 0.222
 gam= 0.752 g(H,U,f)=  0.179E+00 0.376E+00 0.603E-01 ort(H,U,f) = 0.208E+00-0.219E+00 0.536E-02
CGA:  13    -0.698692839771E+02   -0.68396E-01   -0.67206E-01    96   0.615E+00-0.562E-02
 gam= 0.752 trial= 0.219  step= 0.167 mean= 0.219
 gam= 0.928 g(H,U,f)=  0.990E-01 0.432E+00 0.405E-01 ort(H,U,f) = 0.154E+00-0.101E+00-0.574E-01
CGA:  14    -0.699207109257E+02   -0.51427E-01   -0.50922E-01    96   0.571E+00-0.421E-02
 gam= 0.928 trial= 0.217  step= 0.111 mean= 0.217
 gam= 0.534 g(H,U,f)=  0.702E-01 0.182E+00 0.532E-01 ort(H,U,f) = 0.105E+00-0.988E-01-0.583E-02
CGA:  15    -0.699524710725E+02   -0.31760E-01   -0.31606E-01    96   0.305E+00 0.859E-03
 gam= 0.534 trial= 0.211  step= 0.163 mean= 0.211
 gam= 0.721 g(H,U,f)=  0.525E-01 0.158E+00 0.942E-02 ort(H,U,f) = 0.600E-01-0.416E-01-0.150E-01
CGA:  16    -0.699769147132E+02   -0.24444E-01   -0.24896E-01    96   0.220E+00 0.341E-02
 gam= 0.721 trial= 0.209  step= 0.122 mean= 0.209
 gam= 0.529 g(H,U,f)=  0.399E-01 0.545E-01 0.219E-01 ort(H,U,f) = 0.576E-01-0.434E-01-0.148E-01
CGA:  17    -0.699904280427E+02   -0.13513E-01   -0.13561E-01    96   0.116E+00-0.522E-03
 gam= 0.529 trial= 0.205  step= 0.197 mean= 0.205
 gam= 1.208 g(H,U,f)=  0.245E-01 0.113E+00 0.332E-02 ort(H,U,f) = 0.374E-01-0.390E-01 0.633E-04
CGA:  18    -0.700018971286E+02   -0.11469E-01   -0.11456E-01    96   0.141E+00-0.156E-02
 gam= 1.208 trial= 0.204  step= 0.123 mean= 0.204
 gam= 0.490 g(H,U,f)=  0.159E-01 0.395E-01 0.135E-01 ort(H,U,f) = 0.330E-01-0.200E-01-0.128E-01
CGA:  19    -0.700104211106E+02   -0.85240E-02   -0.85170E-02    96   0.688E-01 0.187E-03
 gam= 0.490 trial= 0.200  step= 0.149 mean= 0.200
 gam= 0.702 g(H,U,f)=  0.891E-02 0.382E-01 0.121E-02 ort(H,U,f) = 0.161E-01-0.164E-01 0.577E-03
CGA:  20    -0.700155075908E+02   -0.50865E-02   -0.51437E-02    96   0.483E-01 0.322E-03
 gam= 0.702 trial= 0.198  step= 0.120 mean= 0.198
 gam= 0.339 g(H,U,f)=  0.490E-02 0.943E-02 0.206E-02 ort(H,U,f) = 0.893E-02-0.603E-02-0.307E-02
CGA:  21    -0.700183810797E+02   -0.28735E-02   -0.29065E-02    96   0.164E-01-0.173E-03
 gam= 0.339 trial= 0.194  step= 0.141 mean= 0.194
 gam= 0.812 g(H,U,f)=  0.341E-02 0.929E-02 0.608E-03 ort(H,U,f) = 0.490E-02-0.520E-02 0.316E-03
CGA:  22    -0.700195441667E+02   -0.11631E-02   -0.11554E-02    96   0.133E-01 0.175E-04
 gam= 0.812 trial= 0.191  step= 0.161 mean= 0.191
 gam= 0.635 g(H,U,f)=  0.212E-02 0.514E-02 0.118E-02 ort(H,U,f) = 0.391E-02-0.266E-02-0.120E-02
CGA:  23    -0.700206192270E+02   -0.10751E-02   -0.10751E-02    96   0.845E-02 0.578E-04
 gam= 0.635 trial= 0.190  step= 0.149 mean= 0.190
 gam= 0.827 g(H,U,f)=  0.142E-02 0.504E-02 0.524E-03 ort(H,U,f) = 0.261E-02-0.272E-02 0.140E-03
CGA:  24    -0.700212478778E+02   -0.62865E-03   -0.63163E-03    96   0.699E-02 0.232E-04
 gam= 0.827 trial= 0.188  step= 0.153 mean= 0.188
 gam= 0.528 g(H,U,f)=  0.922E-03 0.256E-02 0.209E-03 ort(H,U,f) = 0.152E-02-0.114E-02-0.427E-03
CGA:  25    -0.700217846627E+02   -0.53678E-03   -0.53626E-03    96   0.369E-02-0.405E-04
 gam= 0.528 trial= 0.186  step= 0.136 mean= 0.186
 gam= 0.729 g(H,U,f)=  0.739E-03 0.171E-02 0.237E-03 ort(H,U,f) = 0.104E-02-0.975E-03-0.574E-04
CGA:  26    -0.700220340925E+02   -0.24943E-03   -0.24883E-03    96   0.269E-02 0.807E-05
 gam= 0.729 trial= 0.183  step= 0.170 mean= 0.183
 gam= 0.719 g(H,U,f)=  0.489E-03 0.140E-02 0.407E-04 ort(H,U,f) = 0.830E-03-0.731E-03-0.612E-04
CGA:  27    -0.700222623877E+02   -0.22830E-03   -0.22857E-03    96   0.193E-02 0.373E-04
 gam= 0.719 trial= 0.183  step= 0.145 mean= 0.183
 gam= 0.804 g(H,U,f)=  0.353E-03 0.110E-02 0.104E-03 ort(H,U,f) = 0.611E-03-0.563E-03-0.508E-04
CGA:  28    -0.700224047424E+02   -0.14235E-03   -0.14253E-03    96   0.155E-02-0.284E-05
 gam= 0.804 trial= 0.181  step= 0.170 mean= 0.181
 gam= 0.636 g(H,U,f)=  0.248E-03 0.733E-03 0.769E-05 ort(H,U,f) = 0.354E-03-0.391E-03-0.683E-06
CGA:  29    -0.700225367976E+02   -0.13206E-03   -0.13185E-03    96   0.988E-03-0.371E-04
 gam= 0.636 trial= 0.180  step= 0.133 mean= 0.180
 gam= 0.702 g(H,U,f)=  0.200E-03 0.476E-03 0.173E-04 ort(H,U,f) = 0.278E-03-0.262E-03-0.215E-04
CGA:  30    -0.700226011739E+02   -0.64376E-04   -0.64197E-04    96   0.694E-03-0.502E-05
 gam= 0.702 trial= 0.178  step= 0.177 mean= 0.178
 final diagonalization
FORCES:
     0.0670189     0.3470564    -0.2910515
     0.3313610     0.4800156     0.7539427
    -0.4585332     0.1075483    -0.0752962
    -0.7482389     0.6030856     0.5619495
     0.6229938    -0.4491301    -0.1870095
     1.1937562    -0.9373867    -0.5626324
    -1.0267255    -0.2336262     0.0154086
     0.2067222    -0.0124319    -0.0772561
     0.0269040     0.6489721    -1.0084065
     1.2257940     0.2496761    -0.8637188
    -0.0424540     0.4860276     0.4315817
    -0.5232950    -0.5816362    -0.3914202
    -0.4074073     0.4673023     0.6560443
    -0.1496774    -0.3866541     0.4018729
     1.0798118    -0.1072672    -0.4138635
     0.4702248     0.4599274     0.1447422
     0.2555091    -0.6303241    -0.6941311
     0.6277060     0.8973916     0.5706911
     1.3772141     0.4930452    -0.0281922
    -1.2522079    -0.6346479     0.5603067
    -0.3294500    -0.5280125    -0.4099902
    -0.8000057    -0.6303994    -0.4277421
    -0.6890883     0.1469562     1.0640098
    -0.5773593     0.6130117     0.4615163
     1.0376198    -0.2881451    -0.2446944
    -0.9781052     0.8563672     0.8814861
     0.1833061    -1.0216814    -0.2375111
    -0.7233942    -0.4150405    -0.5906363
   3 F= -.70022601E+02 E0= -.70000571E+02  d E =-.700226E+02
POSITIONS: reading from stdin
Inputting positions...
New scaled positions
     0.9672090     0.0354936     0.7435752
     0.1227122     0.8513342     0.0744583
     0.6340112     0.5158032     0.2933492
     0.6611388     0.8323712     0.8779973
     0.1352294     0.1831386     0.4777875
     0.1881494     0.4730690     0.9465429
     0.4685081     0.9770351     0.6240355
     0.9294991     0.3055492     0.2233429
     0.7447480     0.7698497     0.5067345
     0.9952958     0.6945518     0.7499459
     0.4250962     0.6948233     0.1028573
     0.7717457     0.5035777     0.9786632
     0.4644747     0.3072019     0.5090936
     0.8503179     0.4175210     0.5705244
     0.4553391     0.6985510     0.4319173
     0.7857622     0.1107440     0.4728394
     0.6905568     0.8380695     0.2005096
     0.4902267     0.3822871     0.0500871
     0.5788769     0.5460798     0.7290596
     0.1600151     0.4797271     0.6190716
     0.2511389     0.4285643     0.2645112
     0.9435394     0.6184361     0.2751448
     0.2885031     0.7749745     0.8124082
     0.3529037     0.0234855     0.3207733
     0.6955467     0.2100554     0.7745353
     0.0926177     0.8696665     0.5197234
     0.4386570     0.9866467     0.9755019
     0.2711696     0.2159318     0.7563891
Old scaled positions
     0.9656526     0.0296092     0.7512050
     0.1152738     0.8402927     0.0567526
     0.6463210     0.5083682     0.2957997
     0.6777116     0.8212773     0.8641643
     0.1205513     0.1910798     0.4806296
     0.1609057     0.4948492     0.9600014
     0.4928746     0.9819311     0.6237593
     0.9245179     0.3058889     0.2251572
     0.7454148     0.7566876     0.5323508
     0.9709805     0.6897957     0.7672898
     0.4240163     0.6850376     0.0915962
     0.7833247     0.5160013     0.9856075
     0.4754384     0.2961206     0.4950190
     0.8524136     0.4260861     0.5623581
     0.4194419     0.6991125     0.4467884
     0.7739759     0.0992212     0.4662560
     0.6840790     0.8559196     0.2158310
     0.4780146     0.3562637     0.0302111
     0.5438677     0.5343151     0.7287448
     0.1944579     0.5018305     0.6027608
     0.2567899     0.4429344     0.2785137
     0.9641367     0.6334025     0.2869743
     0.3022751     0.7653410     0.7834679
     0.3662913     0.0085203     0.3109659
     0.6707106     0.2190143     0.7832116
     0.1166234     0.8464680     0.5011253
     0.4361080     0.0131794     0.9826889
     0.2908196     0.2259908     0.7721493
POSITIONS: read from stdin
LATTICE: reading from stdin
New   direct lattice vectors                   reciprocal lattice vectors
       9.7649645    0.0000000    0.0000000       0.1024069    0.0000000    0.0000000
       0.0000000    9.7649645    0.0000000       0.0000000    0.1024069    0.0000000
       0.0000000    0.0000000    9.7649645       0.0000000    0.0000000    0.1024069


Old   direct lattice vectors                   reciprocal lattice vectors
       9.7649645    0.0000000    0.0000000       0.1024069    0.0000000    0.0000000
       0.0000000    9.7649645    0.0000000       0.0000000    0.1024069    0.0000000
       0.0000000    0.0000000    9.7649645       0.0000000    0.0000000    0.1024069


LATTICE: read from stdin
 bond charge predicted
 wavefunctions rotated
       N       E                     dE             d eps       ncg     rms          ort
 gam= 0.000 g(H,U,f)=  0.288E+03 0.696E+01 0.583E-03 ort(H,U,f) = 0.000E+00 0.000E+00 0.000E+00
SDA:   1     0.122687575723E+02    0.82291E+02    0.00000E+00    96   0.295E+03 0.000E+00
 gam= 0.000 trial= 0.178  step= 0.451 mean= 0.178
 gam= 0.617 g(H,U,f)=  0.613E+02 0.120E+03 0.660E+00 ort(H,U,f) =-0.586E+01-0.291E+02 0.228E+00
CGA:   2    -0.495425906056E+02   -0.61811E+02   -0.66505E+02    96   0.182E+03-0.347E+02
 gam= 0.617 trial= 0.191  step= 0.142 mean= 0.191
 gam= 0.378 g(H,U,f)=  0.418E+02 0.268E+02 0.235E+00 ort(H,U,f) = 0.194E+02 0.848E+01 0.138E+00
CGA:   3    -0.585440414546E+02   -0.90015E+01   -0.11421E+02    96   0.689E+02 0.280E+02
 gam= 0.378 trial= 0.189  step= 0.186 mean= 0.189
 gam= 0.265 g(H,U,f)=  0.168E+02 0.133E+01 0.623E-01 ort(H,U,f) = 0.201E+02-0.902E+00-0.789E-01
CGA:   4    -0.659044940371E+02   -0.73605E+01   -0.74100E+01    96   0.182E+02 0.191E+02
 gam= 0.265 trial= 0.189  step= 0.459 mean= 0.189
 gam= 0.000 g(H,U,f)=  0.832E+01 0.235E+02 0.131E+00 ort(H,U,f) =-0.325E+01-0.110E+02-0.466E-01
CGA:   5    -0.702174248404E+02   -0.43129E+01   -0.53440E+01    96   0.320E+02-0.143E+02
 gam= 0.000 trial= 0.202  step= 0.124 mean= 0.202
 gam= 0.197 g(H,U,f)=  0.390E+01 0.174E+01 0.655E+00 ort(H,U,f) = 0.368E+01-0.256E+01-0.107E+01
CGA:   6    -0.714109670841E+02   -0.11935E+01   -0.19873E+01    96   0.629E+01 0.419E-01
 gam= 0.197 trial= 0.198  step= 0.344 mean= 0.198
 gam= 0.000 g(H,U,f)=  0.249E+01 0.232E+02 0.238E+00 ort(H,U,f) = 0.260E+00-0.828E+01-0.766E-01
CGA:   7    -0.718351247059E+02   -0.42416E+00   -0.10815E+01    96   0.259E+02-0.810E+01
 gam= 0.000 trial= 0.206  step= 0.110 mean= 0.206
 gam= 0.114 g(H,U,f)=  0.102E+01 0.146E+01 0.460E+00 ort(H,U,f) = 0.537E-01-0.292E+01-0.105E+01
CGA:   8    -0.725235838657E+02   -0.68846E+00   -0.14227E+01    96   0.294E+01-0.392E+01
 gam= 0.114 trial= 0.201  step= 0.197 mean= 0.201
 gam= 0.775 g(H,U,f)=  0.656E+00 0.132E+01 0.307E+00 ort(H,U,f) = 0.511E+00-0.134E+01-0.401E+00
CGA:   9    -0.727747069454E+02   -0.25112E+00   -0.24671E+00    96   0.228E+01-0.123E+01
 gam= 0.775 trial= 0.201  step= 0.773 mean= 0.201
 gam= 0.195 g(H,U,f)=  0.343E+00 0.837E-01 0.177E-01 ort(H,U,f) =-0.724E-02 0.144E-01 0.857E-03
CGA:  10    -0.732903591818E+02   -0.51565E+00   -0.51464E+00    96   0.444E+00 0.800E-02
 gam= 0.195 trial= 0.229  step= 0.332 mean= 0.229
 gam= 0.874 g(H,U,f)=  0.710E-01 0.230E+00 0.871E-01 ort(H,U,f) = 0.769E-01-0.756E-01-0.410E-01
CGA:  11    -0.733619064554E+02   -0.71547E-01   -0.73994E-01    96   0.388E+00-0.397E-01
 gam= 0.874 trial= 0.235  step= 0.155 mean= 0.235
 gam= 0.175 g(H,U,f)=  0.300E-01 0.375E-01 0.669E-03 ort(H,U,f) = 0.246E-03-0.259E-02 0.327E-02
CGA:  12    -0.733883386780E+02   -0.26432E-01   -0.27450E-01    96   0.682E-01 0.930E-03
 gam= 0.175 trial= 0.231  step= 0.256 mean= 0.231
 gam= 0.906 g(H,U,f)=  0.188E-01 0.330E-01 0.998E-02 ort(H,U,f) = 0.160E-01-0.110E-01-0.191E-02
CGA:  13    -0.733971621382E+02   -0.88235E-02   -0.87562E-02    96   0.617E-01 0.309E-02
 gam= 0.906 trial= 0.232  step= 0.244 mean= 0.232
 gam= 0.545 g(H,U,f)=  0.953E-02 0.117E-01 0.124E-01 ort(H,U,f) = 0.601E-02 0.270E-02-0.107E-01
CGA:  14    -0.734050266925E+02   -0.78646E-02   -0.78886E-02    96   0.336E-01-0.199E-02
 gam= 0.545 trial= 0.232  step= 0.257 mean= 0.232
 gam= 0.730 g(H,U,f)=  0.583E-02 0.167E-01 0.203E-02 ort(H,U,f) = 0.332E-02-0.957E-03-0.229E-02
CGA:  15    -0.734092172027E+02   -0.41905E-02   -0.41889E-02    96   0.246E-01 0.760E-04
 gam= 0.730 trial= 0.234  step= 0.248 mean= 0.234
 gam= 0.287 g(H,U,f)=  0.309E-02 0.387E-02 0.890E-04 ort(H,U,f) = 0.103E-02-0.141E-02 0.138E-03
CGA:  16    -0.734122719411E+02   -0.30547E-02   -0.30582E-02    96   0.705E-02-0.242E-03
 gam= 0.287 trial= 0.234  step= 0.304 mean= 0.234
 gam= 1.139 g(H,U,f)=  0.150E-02 0.384E-02 0.269E-02 ort(H,U,f) = 0.154E-02-0.746E-03-0.712E-03
CGA:  17    -0.734133364420E+02   -0.10645E-02   -0.10600E-02    96   0.803E-02 0.787E-04
 gam= 1.139 trial= 0.238  step= 0.202 mean= 0.238
 gam= 0.222 g(H,U,f)=  0.954E-03 0.711E-03 0.116E-03 ort(H,U,f) = 0.741E-03-0.359E-03-0.394E-03
CGA:  18    -0.734141572989E+02   -0.82086E-03   -0.81806E-03    96   0.178E-02-0.123E-04
 gam= 0.222 trial= 0.236  step= 0.398 mean= 0.236
 gam= 1.329 g(H,U,f)=  0.513E-03 0.150E-02 0.351E-03 ort(H,U,f) = 0.513E-03-0.464E-03-0.552E-04
CGA:  19    -0.734145110304E+02   -0.35373E-03   -0.35414E-03    96   0.237E-02-0.659E-05
 gam= 1.329 trial= 0.244  step= 0.198 mean= 0.244
 gam= 0.289 g(H,U,f)=  0.288E-03 0.220E-03 0.175E-03 ort(H,U,f) = 0.441E-03-0.249E-03-0.183E-03
CGA:  20    -0.734147445390E+02   -0.23351E-03   -0.23324E-03    96   0.683E-03 0.824E-05
 gam= 0.289 trial= 0.242  step= 0.271 mean= 0.242
 gam= 0.842 g(H,U,f)=  0.197E-03 0.298E-03 0.806E-04 ort(H,U,f) = 0.206E-03-0.137E-03-0.813E-04
CGA:  21    -0.734148374511E+02   -0.92912E-04   -0.93034E-04    96   0.575E-03-0.115E-04
 gam= 0.842 trial= 0.243  step= 0.274 mean= 0.243
 final diagonalization
FORCES:
     0.0234234     0.4703574    -0.2082148
     0.3093449     0.4749161     0.6585857
    -0.2378129    -0.1844755    -0.0191514
    -0.6738663     0.7121186     0.4030291
     0.5639377    -0.5645989    -0.2839951
     1.0549664    -0.8324212    -0.5145513
    -0.9544090    -0.2943479     0.0252464
     0.2580404    -0.0542273    -0.0348458
     0.2162821     0.6873470    -0.7219125
     1.3431700     0.3091158    -0.8755426
    -0.2044685     0.5804397     0.3099492
    -0.4775583    -0.5711582    -0.5078289
    -0.3138969     0.4331142     0.6712440
    -0.2155892    -0.4200370     0.4082271
     0.4542333    -0.0642040    -0.0936480
     0.4469481     0.4276549    -0.0106909
     0.2792573    -0.4669116    -0.6910439
     0.6995521     0.6704476     0.2856003
     1.1892036     0.4414350    -0.1058031
    -0.9794795    -0.4194493     0.3717874
    -0.4352149    -0.4264900    -0.2042995
    -0.6608113    -0.5995394    -0.3103139
    -0.8057317    -0.1287867     0.8200822
    -0.5878435     0.5283115     0.5201879
     1.0619903    -0.1377812    -0.1387085
    -0.9210082     0.7057978     0.9455495
     0.2039191    -0.8920729    -0.1393350
    -0.6365784    -0.3845542    -0.5596036
   4 F= -.73414837E+02 E0= -.73398759E+02  d E =-.734148E+02
POSITIONS: reading from stdin
Attemping to close VASP cleanly
Inputting positions...
New scaled positions
     0.9672090     0.0354936     0.7435752
     0.1227122     0.8513342     0.0744583
     0.6340112     0.5158032     0.2933492
     0.6611388     0.8323712     0.8779973
     0.1352294     0.1831386     0.4777875
     0.1881494     0.4730690     0.9465429
     0.4685081     0.9770351     0.6240355
     0.9294991     0.3055492     0.2233429
     0.7447480     0.7698497     0.5067345
     0.9952958     0.6945518     0.7499459
     0.4250962     0.6948233     0.1028573
     0.7717457     0.5035777     0.9786632
     0.4644747     0.3072019     0.5090936
     0.8503179     0.4175210     0.5705244
     0.4553391     0.6985510     0.4319173
     0.7857622     0.1107440     0.4728394
     0.6905568     0.8380695     0.2005096
     0.4902267     0.3822871     0.0500871
     0.5788769     0.5460798     0.7290596
     0.1600151     0.4797271     0.6190716
     0.2511389     0.4285643     0.2645112
     0.9435394     0.6184361     0.2751448
     0.2885031     0.7749745     0.8124082
     0.3529037     0.0234855     0.3207733
     0.6955467     0.2100554     0.7745353
     0.0926177     0.8696665     0.5197234
     0.4386570     0.9866467     0.9755019
     0.2711696     0.2159318     0.7563891
Old scaled positions
     0.9656526     0.0296092     0.7512050
     0.1152738     0.8402927     0.0567526
     0.6463210     0.5083682     0.2957997
     0.6777116     0.8212773     0.8641643
     0.1205513     0.1910798     0.4806296
     0.1609057     0.4948492     0.9600014
     0.4928746     0.9819311     0.6237593
     0.9245179     0.3058889     0.2251572
     0.7454148     0.7566876     0.5323508
     0.9709805     0.6897957     0.7672898
     0.4240163     0.6850376     0.0915962
     0.7833247     0.5160013     0.9856075
     0.4754384     0.2961206     0.4950190
     0.8524136     0.4260861     0.5623581
     0.4194419     0.6991125     0.4467884
     0.7739759     0.0992212     0.4662560
     0.6840790     0.8559196     0.2158310
     0.4780146     0.3562637     0.0302111
     0.5438677     0.5343151     0.7287448
     0.1944579     0.5018305     0.6027608
     0.2567899     0.4429344     0.2785137
     0.9641367     0.6334025     0.2869743
     0.3022751     0.7653410     0.7834679
     0.3662913     0.0085203     0.3109659
     0.6707106     0.2190143     0.7832116
     0.1166234     0.8464680     0.5011253
     0.4361080     0.0131794     0.9826889
     0.2908196     0.2259908     0.7721493
POSITIONS: read from stdin
LATTICE: reading from stdin
New   direct lattice vectors                   reciprocal lattice vectors
       9.7649645    0.0000000    0.0000000       0.1024069    0.0000000    0.0000000
       0.0000000    9.7649645    0.0000000       0.0000000    0.1024069    0.0000000
       0.0000000    0.0000000    9.7649645       0.0000000    0.0000000    0.1024069


Old   direct lattice vectors                   reciprocal lattice vectors
       9.7649645    0.0000000    0.0000000       0.1024069    0.0000000    0.0000000
       0.0000000    9.7649645    0.0000000       0.0000000    0.1024069    0.0000000
       0.0000000    0.0000000    9.7649645       0.0000000    0.0000000    0.1024069


LATTICE: read from stdin
 bond charge predicted
 wavefunctions rotated
       N       E                     dE             d eps       ncg     rms          ort
 gam= 0.000 g(H,U,f)=  0.669E-02 0.467E-01 0.171E-01 ort(H,U,f) = 0.000E+00 0.000E+00 0.000E+00
SDA:   1    -0.734117949806E+02    0.29496E-02    0.00000E+00    96   0.705E-01 0.000E+00
 gam= 0.000 trial= 0.245  step= 0.077 mean= 0.245
 hard stop encountered!  aborting job ...
FORCES:
     0.0306283     0.4627918    -0.1943677
     0.3439764     0.5036889     0.6643098
    -0.3167158    -0.1696612    -0.0461423
    -0.7216732     0.7635260     0.4174063
     0.6308758    -0.6188904    -0.2706288
     1.1116454    -0.8561850    -0.5176090
    -0.9927996    -0.2850104     0.0391595
     0.2679065    -0.0858834    -0.0583466
     0.1788617     0.7461102    -0.7314215
     1.3712166     0.3767931    -0.8717446
    -0.2247869     0.6173917     0.3091925
    -0.5411911    -0.5720974    -0.5195168
    -0.3673693     0.4034831     0.6794513
    -0.2326332    -0.4235060     0.4307863
     0.5141633    -0.1463436    -0.1115478
     0.5456627     0.5066869    -0.0544119
     0.3701537    -0.5944098    -0.6954975
     0.8516197     0.8887179     0.3410789
     1.2949106     0.4435162    -0.0537425
    -1.0568692    -0.4630152     0.3431575
    -0.5673506    -0.4259423    -0.1873699
    -0.7474729    -0.7556991    -0.3660224
    -0.8112607    -0.1289484     0.8210384
    -0.5998947     0.5267019     0.5239795
     1.0546561    -0.1409956    -0.1345850
    -0.9294107     0.7097173     0.9447250
     0.1924693    -0.8959205    -0.1398528
    -0.6493181    -0.3866169    -0.5614781
   5 F= -.73411795E+02 E0= -.73395429E+02  d E =-.734118E+02
POSITIONS: reading from stdin
Inputting positions...
New scaled positions
     0.9672090     0.0354936     0.7435752
     0.1227122     0.8513342     0.0744583
     0.6340112     0.5158032     0.2933492
     0.6611388     0.8323712     0.8779973
     0.1352294     0.1831386     0.4777875
     0.1881494     0.4730690     0.9465429
     0.4685081     0.9770351     0.6240355
     0.9294991     0.3055492     0.2233429
     0.7447480     0.7698497     0.5067345
     0.9952958     0.6945518     0.7499459
     0.4250962     0.6948233     0.1028573
     0.7717457     0.5035777     0.9786632
     0.4644747     0.3072019     0.5090936
     0.8503179     0.4175210     0.5705244
     0.4553391     0.6985510     0.4319173
     0.7857622     0.1107440     0.4728394
     0.6905568     0.8380695     0.2005096
     0.4902267     0.3822871     0.0500871
     0.5788769     0.5460798     0.7290596
     0.1600151     0.4797271     0.6190716
     0.2511389     0.4285643     0.2645112
     0.9435394     0.6184361     0.2751448
     0.2885031     0.7749745     0.8124082
     0.3529037     0.0234855     0.3207733
     0.6955467     0.2100554     0.7745353
     0.0926177     0.8696665     0.5197234
     0.4386570     0.9866467     0.9755019
     0.2711696     0.2159318     0.7563891
Old scaled positions
     0.9656526     0.0296092     0.7512050
     0.1152738     0.8402927     0.0567526
     0.6463210     0.5083682     0.2957997
     0.6777116     0.8212773     0.8641643
     0.1205513     0.1910798     0.4806296
     0.1609057     0.4948492     0.9600014
     0.4928746     0.9819311     0.6237593
     0.9245179     0.3058889     0.2251572
     0.7454148     0.7566876     0.5323508
     0.9709805     0.6897957     0.7672898
     0.4240163     0.6850376     0.0915962
     0.7833247     0.5160013     0.9856075
     0.4754384     0.2961206     0.4950190
     0.8524136     0.4260861     0.5623581
     0.4194419     0.6991125     0.4467884
     0.7739759     0.0992212     0.4662560
     0.6840790     0.8559196     0.2158310
     0.4780146     0.3562637     0.0302111
     0.5438677     0.5343151     0.7287448
     0.1944579     0.5018305     0.6027608
     0.2567899     0.4429344     0.2785137
     0.9641367     0.6334025     0.2869743
     0.3022751     0.7653410     0.7834679
     0.3662913     0.0085203     0.3109659
     0.6707106     0.2190143     0.7832116
     0.1166234     0.8464680     0.5011253
     0.4361080     0.0131794     0.9826889
     0.2908196     0.2259908     0.7721493
POSITIONS: read from stdin
LATTICE: reading from stdin
New   direct lattice vectors                   reciprocal lattice vectors
       9.7649645    0.0000000    0.0000000       0.1024069    0.0000000    0.0000000
       0.0000000    9.7649645    0.0000000       0.0000000    0.1024069    0.0000000
       0.0000000    0.0000000    9.7649645       0.0000000    0.0000000    0.1024069


Old   direct lattice vectors                   reciprocal lattice vectors
       9.7649645    0.0000000    0.0000000       0.1024069    0.0000000    0.0000000
       0.0000000    9.7649645    0.0000000       0.0000000    0.1024069    0.0000000
       0.0000000    0.0000000    9.7649645       0.0000000    0.0000000    0.1024069


LATTICE: read from stdin
 writing wavefunctions
 augmentation electrons   16.4983959307340     
 soft         electrons   143.510599380046     
 total        electrons   160.008995310781     
 deleting file STOPCAR
VASP terminated normally
VASP exited with code 0.