unknown system                          
           1
     9.764965    0.000000    0.000000
     0.000000    9.764965    0.000000
     0.000000    0.000000    9.764965
   Cl   K    Na
    14     8     6
Direct configuration=     1
   0.96565262  0.02960925  0.75120497
   0.11527381  0.84029270  0.05675259
   0.64632097  0.50836820  0.29579967
   0.67771162  0.82127731  0.86416427
   0.12055126  0.19107979  0.48062960
   0.16090570  0.49484920  0.96000144
   0.49287459  0.98193113  0.62375932
   0.92451790  0.30588892  0.22515725
   0.74541480  0.75668764  0.53235075
   0.97098045  0.68979566  0.76728979
   0.42401631  0.68503756  0.09159620
   0.78332472  0.51600133  0.98560753
   0.47543836  0.29612057  0.49501900
   0.85241356  0.42608610  0.56235811
   0.41944191  0.69911252  0.44678843
   0.77397591  0.09922120  0.46625598
   0.68407899  0.85591955  0.21583096
   0.47801456  0.35626372  0.03021114
   0.54386770  0.53431510  0.72874479
   0.19445790  0.50183055  0.60276076
   0.25678992  0.44293445  0.27851368
   0.96413671  0.63340253  0.28697426
   0.30227514  0.76534103  0.78346793
   0.36629128  0.00852029  0.31096594
   0.67071062  0.21901427  0.78321162
   0.11662336  0.84646796  0.50112527
   0.43610795  0.01317945  0.98268887
   0.29081963  0.22599079  0.77214929
unknown system                          
           1
     9.764965    0.000000    0.000000
     0.000000    9.764965    0.000000
     0.000000    0.000000    9.764965
   Cl   K    Na
    14     8     6
Direct configuration=     2
   0.96565262  0.02960925  0.75120497
   0.11527381  0.84029270  0.05675259
   0.64632097  0.50836820  0.29579967
   0.67771162  0.82127731  0.86416427
   0.12055126  0.19107979  0.48062960
   0.16090570  0.49484920  0.96000144
   0.49287459  0.98193113  0.62375932
   0.92451790  0.30588892  0.22515725
   0.74541480  0.75668764  0.53235075
   0.97098045  0.68979566  0.76728979
   0.42401631  0.68503756  0.09159620
   0.78332472  0.51600133  0.98560753
   0.47543836  0.29612057  0.49501900
   0.85241356  0.42608610  0.56235811
   0.41944191  0.69911252  0.44678843
   0.77397591  0.09922120  0.46625598
   0.68407899  0.85591955  0.21583096
   0.47801456  0.35626372  0.03021114
   0.54386770  0.53431510  0.72874479
   0.19445790  0.50183055  0.60276076
   0.25678992  0.44293445  0.27851368
   0.96413671  0.63340253  0.28697426
   0.30227514  0.76534103  0.78346793
   0.36629128  0.00852029  0.31096594
   0.67071062  0.21901427  0.78321162
   0.11662336  0.84646796  0.50112527
   0.43610795  0.01317945  0.98268887
   0.29081963  0.22599079  0.77214929
unknown system                          
           1
     9.764965    0.000000    0.000000
     0.000000    9.764965    0.000000
     0.000000    0.000000    9.764965
   Cl   K    Na
    14     8     6
Direct configuration=     3
   0.96565262  0.02960925  0.75120497
   0.11527381  0.84029270  0.05675259
   0.64632097  0.50836820  0.29579967
   0.67771162  0.82127731  0.86416427
   0.12055126  0.19107979  0.48062960
   0.16090570  0.49484920  0.96000144
   0.49287459  0.98193113  0.62375932
   0.92451790  0.30588892  0.22515725
   0.74541480  0.75668764  0.53235075
   0.97098045  0.68979566  0.76728979
   0.42401631  0.68503756  0.09159620
   0.78332472  0.51600133  0.98560753
   0.47543836  0.29612057  0.49501900
   0.85241356  0.42608610  0.56235811
   0.41944191  0.69911252  0.44678843
   0.77397591  0.09922120  0.46625598
   0.68407899  0.85591955  0.21583096
   0.47801456  0.35626372  0.03021114
   0.54386770  0.53431510  0.72874479
   0.19445790  0.50183055  0.60276076
   0.25678992  0.44293445  0.27851368
   0.96413671  0.63340253  0.28697426
   0.30227514  0.76534103  0.78346793
   0.36629128  0.00852029  0.31096594
   0.67071062  0.21901427  0.78321162
   0.11662336  0.84646796  0.50112527
   0.43610795  0.01317945  0.98268887
   0.29081963  0.22599079  0.77214929
unknown system                          
           1
     9.764965    0.000000    0.000000
     0.000000    9.764965    0.000000
     0.000000    0.000000    9.764965
   Cl   K    Na
    14     8     6
Direct configuration=     4
   0.96565262  0.02960925  0.75120497
   0.11527381  0.84029270  0.05675259
   0.64632097  0.50836820  0.29579967
   0.67771162  0.82127731  0.86416427
   0.12055126  0.19107979  0.48062960
   0.16090570  0.49484920  0.96000144
   0.49287459  0.98193113  0.62375932
   0.92451790  0.30588892  0.22515725
   0.74541480  0.75668764  0.53235075
   0.97098045  0.68979566  0.76728979
   0.42401631  0.68503756  0.09159620
   0.78332472  0.51600133  0.98560753
   0.47543836  0.29612057  0.49501900
   0.85241356  0.42608610  0.56235811
   0.41944191  0.69911252  0.44678843
   0.77397591  0.09922120  0.46625598
   0.68407899  0.85591955  0.21583096
   0.47801456  0.35626372  0.03021114
   0.54386770  0.53431510  0.72874479
   0.19445790  0.50183055  0.60276076
   0.25678992  0.44293445  0.27851368
   0.96413671  0.63340253  0.28697426
   0.30227514  0.76534103  0.78346793
   0.36629128  0.00852029  0.31096594
   0.67071062  0.21901427  0.78321162
   0.11662336  0.84646796  0.50112527
   0.43610795  0.01317945  0.98268887
   0.29081963  0.22599079  0.77214929
unknown system                          
           1
     9.764965    0.000000    0.000000
     0.000000    9.764965    0.000000
     0.000000    0.000000    9.764965
   Cl   K    Na
    14     8     6
Direct configuration=     5
   0.96565262  0.02960925  0.75120497
   0.11527381  0.84029270  0.05675259
   0.64632097  0.50836820  0.29579967
   0.67771162  0.82127731  0.86416427
   0.12055126  0.19107979  0.48062960
   0.16090570  0.49484920  0.96000144
   0.49287459  0.98193113  0.62375932
   0.92451790  0.30588892  0.22515725
   0.74541480  0.75668764  0.53235075
   0.97098045  0.68979566  0.76728979
   0.42401631  0.68503756  0.09159620
   0.78332472  0.51600133  0.98560753
   0.47543836  0.29612057  0.49501900
   0.85241356  0.42608610  0.56235811
   0.41944191  0.69911252  0.44678843
   0.77397591  0.09922120  0.46625598
   0.68407899  0.85591955  0.21583096
   0.47801456  0.35626372  0.03021114
   0.54386770  0.53431510  0.72874479
   0.19445790  0.50183055  0.60276076
   0.25678992  0.44293445  0.27851368
   0.96413671  0.63340253  0.28697426
   0.30227514  0.76534103  0.78346793
   0.36629128  0.00852029  0.31096594
   0.67071062  0.21901427  0.78321162
   0.11662336  0.84646796  0.50112527
   0.43610795  0.01317945  0.98268887
   0.29081963  0.22599079  0.77214929
