28
Lattice="9.764964537598228 0.0 0.0 0.0 9.764964537598228 0.0 0.0 0.0 9.764964537598228" Properties=species:S:1:pos:R:3:forces:R:3:stresses:R:6:energies:R:1 energy=-176.15631656954358 stress="0.1475825920695055 0.004329561900222008 -0.0046818723524815874 0.004329561900222008 0.118608199195669 0.018496444840306797 -0.0046818723524815874 0.018496444840306797 0.12854896692188286" free_energy=-176.15631656954358 pbc="T T T"
Cl       6.76609546       2.21905625       1.57189914      -0.03800882      -0.01213388      -0.03971967       0.00414592       0.00381258       0.00770301       0.00023744       0.00097205      -0.00101812      -6.05714508
Cl       1.59028975       9.93687191       4.90482377      -0.03759179       0.02101027      -0.02957103       0.00446184       0.00431833       0.00221963       0.00134318      -0.00004371       0.00190895      -6.24557625
Cl       6.73610358       7.04657666       0.32950818      -0.00435015      -0.01464727       0.02903955       0.00275670       0.00279433       0.00338243       0.00041350       0.00045872       0.00161826      -6.26748922
Cl       8.07751342       0.41467261       4.53714271       0.00997061      -0.05204807      -0.00774248       0.00259646       0.00529917       0.00387439       0.00042469       0.00044434       0.00002415      -6.55123955
Cl       7.90617194       5.18380545       7.47031212      -0.01173849       0.00944069      -0.00103343       0.00626981       0.00194421       0.00464587       0.00034489      -0.00006483      -0.00041297      -6.64600535
Cl       5.00858948      10.02212743       5.84145384       0.01739993       0.00500081      -0.00037336       0.00668057       0.00749892       0.00432476      -0.00025895       0.00035524      -0.00003961      -7.10846412
Cl       5.18548131       5.05838896       2.50451479      -0.00943739      -0.01089542       0.02425758       0.00350985       0.00277292       0.00344093       0.00116880      -0.00206007       0.00067924      -6.60433719
Cl       9.48689910       7.81864605       2.47752912       0.02451242      -0.01441771      -0.00828132       0.00857931       0.00733538       0.00579781       0.00129668       0.00051474      -0.00027200      -5.59289856
Cl       1.63681680       5.12289233       8.34088564      -0.00052930      -0.00528118      -0.02769439       0.00792381       0.00458972       0.00652580       0.00020682       0.00058395       0.00056289      -6.07186345
Cl       2.07175389       8.42636298       7.75993074       0.00991028      -0.00927956       0.01303402       0.00569912       0.00270382       0.00298743       0.00071070      -0.00101432       0.00090836      -5.80765549
Cl       3.78063540       2.10234682       3.25635612      -0.01148019      -0.00036098       0.01677420       0.00613326       0.00469984       0.00529464      -0.00008355      -0.00005037      -0.00054618      -6.21539119
Cl      10.24860628       6.59780706       5.49540070      -0.01999882       0.02551540      -0.00298983       0.00513955       0.00529632       0.00276524      -0.00024847      -0.00003286      -0.00109883      -6.69825149
Cl       8.88342564       4.68646006       0.91906769      -0.00661000       0.01175040      -0.02005701       0.00445185       0.00286756       0.00595504       0.00116384      -0.00086946       0.00115264      -5.51955923
Cl       0.35887222       1.89974167       2.35025870      -0.05282978      -0.00385275       0.03606697       0.00563109       0.00464881       0.00401842       0.00072630       0.00008865       0.00025325      -5.25010841
K        6.97608712       6.84657826       4.64583487      -0.02339808       0.01749783       0.00216550       0.00561203       0.00624025       0.00415383      -0.00000823      -0.00090565      -0.00020442      -6.86685843
K        5.60942318       9.09251822       2.61651767      -0.02042495       0.04605523      -0.04653313       0.00269490       0.00246329       0.00174879       0.00126656       0.00087261      -0.00082695      -6.24055061
K        3.36700062       7.14919282       0.77697840      -0.03290860       0.00319870       0.00131409       0.00508977       0.00437691       0.00637022       0.00175116      -0.00168818       0.00093788      -6.16095253
K        4.99836572       4.08423887       9.00114250       0.00080578       0.01333386      -0.01104565       0.00692243       0.00700467       0.00724587       0.00093843       0.00047152      -0.00027474      -6.45410779
K        2.65609828       1.93863514       7.63653783       0.02537263      -0.01929353      -0.01347000       0.00519264       0.00310016       0.00441429       0.00111949       0.00048433      -0.00052752      -5.59993668
K       10.01075129       3.23162742       5.53829018       0.03783219       0.00012824       0.02862349       0.00775841       0.00597324       0.00635413       0.00036139      -0.00041741       0.00083760      -6.56643632
K        3.51753623       7.36076239       4.34438281      -0.04142316      -0.07703703       0.03294268       0.00303934       0.00071779       0.00429285       0.00141838       0.00084885      -0.00067886      -6.69700450
K        4.97409558       6.95338065       7.32083254      -0.01174657       0.01449080      -0.01065722       0.00383319       0.00392303       0.00336235       0.00006108      -0.00113222       0.00083211      -7.03822005
Na       5.01113232       9.82213717       9.17368084       0.03114968      -0.01210676      -0.01942919       0.00453384       0.00599381       0.00429464       0.00119087       0.00000266       0.00010852      -6.25339571
Na       6.62931808       3.35927238       4.89271494       0.05235997      -0.01074541      -0.03375530       0.00483803       0.00535631       0.00428388       0.00136033      -0.00104671       0.00186932      -6.57708354
Na       1.80675411       4.91389561       2.86250758      -0.00398211      -0.00572496       0.05934564       0.00435656       0.00461055       0.00490413      -0.00092756      -0.00118225      -0.00080147      -6.30327723
Na       7.40382545       1.94257470       7.79194657       0.04669229       0.02499390       0.00625407       0.00565753       0.00295908       0.00651673       0.00148800      -0.00049724       0.00044713      -5.86329521
Na       8.06091420       8.48959536       7.37383478      -0.00905244       0.01635326       0.03168231       0.00807035       0.00247648       0.00377095       0.00012204      -0.00039735      -0.00077162      -6.09719382
Na       3.56588891       4.39282929       5.68452330       0.07950489       0.03905514      -0.00914708       0.00600442       0.00283071       0.00390090       0.00090865       0.00062313      -0.00033744      -6.80201957
