       N       E                     dE             d eps       ncg     rms          ort
DAV:   1     0.143977370967E+04    0.14398E+04   -0.74191E+04    96   0.174E+03
DAV:   2     0.163701712944E+03   -0.12761E+04   -0.12301E+04    96   0.352E+02
DAV:   3    -0.609378498365E+02   -0.22464E+03   -0.21616E+03    96   0.113E+02
DAV:   4    -0.761198768980E+02   -0.15182E+02   -0.15069E+02    96   0.308E+01
DAV:   5    -0.765996658523E+02   -0.47979E+00   -0.47961E+00    96   0.598E+00
SDA:   6    -0.227881034955E+02    0.53812E+02   -0.47961E+00    96   0.132E+03 0.000E+00
CGA:   7    -0.492044908732E+02   -0.26416E+02   -0.24639E+02    96   0.631E+02-0.628E+02
CGA:   8    -0.524315006616E+02   -0.32270E+01   -0.19490E+01    96   0.403E+02-0.764E+01
CGA:   9    -0.555739377731E+02   -0.31424E+01   -0.35971E+01    96   0.478E+02 0.182E+01
CGA:  10    -0.572504494539E+02   -0.16765E+01   -0.17563E+01    96   0.248E+02-0.392E+01
CGA:  11    -0.577425000984E+02   -0.49205E+00   -0.11486E+01    96   0.176E+02-0.130E+02
CGA:  12    -0.590017795672E+02   -0.12593E+01   -0.12560E+01    96   0.581E+01-0.108E+01
CGA:  13    -0.595456452996E+02   -0.54387E+00   -0.50062E+00    96   0.865E+00 0.237E+00
CGA:  14    -0.597389078537E+02   -0.19326E+00   -0.27134E+00    96   0.214E+01-0.850E+00
CGA:  15    -0.598594597293E+02   -0.12055E+00   -0.17045E+00    96   0.694E+00-0.264E+00
CGA:  16    -0.599031676600E+02   -0.43708E-01   -0.46086E-01    96   0.191E+00-0.202E-01
CGA:  17    -0.599314165030E+02   -0.28249E-01   -0.27979E-01    96   0.220E+00-0.913E-02
CGA:  18    -0.599503254948E+02   -0.18909E-01   -0.15929E-01    96   0.117E+00 0.257E-01
CGA:  19    -0.599604324077E+02   -0.10107E-01   -0.10203E-01    96   0.940E-01-0.959E-03
CGA:  20    -0.599684950707E+02   -0.80627E-02   -0.81273E-02    96   0.567E-01-0.626E-03
CGA:  21    -0.599724546393E+02   -0.39596E-02   -0.38111E-02    96   0.286E-01 0.121E-02
CGA:  22    -0.599745215147E+02   -0.20669E-02   -0.19517E-02    96   0.153E-01 0.104E-02
CGA:  23    -0.599754887055E+02   -0.96719E-03   -0.98625E-03    96   0.744E-02-0.206E-03
CGA:  24    -0.599761759534E+02   -0.68725E-03   -0.70044E-03    96   0.835E-02 0.587E-05
CGA:  25    -0.599767994990E+02   -0.62355E-03   -0.61943E-03    96   0.345E-02 0.587E-04
CGA:  26    -0.599770572773E+02   -0.25778E-03   -0.25779E-03    96   0.250E-02 0.610E-04
CGA:  27    -0.599772486703E+02   -0.19139E-03   -0.19341E-03    96   0.126E-02 0.327E-04
CGA:  28    -0.599773550182E+02   -0.10635E-03   -0.10636E-03    96   0.121E-02-0.768E-05
CGA:  29    -0.599774571619E+02   -0.10214E-03   -0.10154E-03    96   0.600E-03-0.150E-04
CGA:  30    -0.599774988382E+02   -0.41676E-04   -0.41580E-04    96   0.413E-03 0.270E-05
   1 F= -.59977499E+02 E0= -.59953753E+02  d E =-.599775E+02
       N       E                     dE             d eps       ncg     rms          ort
SDA:   1    -0.578118576685E+02    0.21656E+01    0.00000E+00    96   0.119E+02 0.000E+00
CGA:   2    -0.595222815704E+02   -0.17104E+01   -0.20692E+01    96   0.201E+02-0.626E+01
CGA:   3    -0.602325850412E+02   -0.71030E+00   -0.12723E+01    96   0.253E+01-0.136E+01
CGA:   4    -0.604815065649E+02   -0.24892E+00   -0.25148E+00    96   0.172E+01 0.853E-01
CGA:   5    -0.607466028543E+02   -0.26510E+00   -0.27200E+00    96   0.133E+01-0.148E+00
CGA:   6    -0.608412325148E+02   -0.94630E-01   -0.96319E-01    96   0.409E+00-0.141E-02
CGA:   7    -0.608787450606E+02   -0.37513E-01   -0.37105E-01    96   0.112E+00-0.307E-02
CGA:   8    -0.608986577575E+02   -0.19913E-01   -0.19703E-01    96   0.103E+00 0.295E-02
CGA:   9    -0.609101684293E+02   -0.11511E-01   -0.11483E-01    96   0.363E-01-0.102E-02
CGA:  10    -0.609137427840E+02   -0.35744E-02   -0.35753E-02    96   0.243E-01-0.455E-05
CGA:  11    -0.609164877686E+02   -0.27450E-02   -0.27445E-02    96   0.870E-02-0.932E-04
CGA:  12    -0.609174934936E+02   -0.10057E-02   -0.10057E-02    96   0.487E-02 0.172E-05
CGA:  13    -0.609183170107E+02   -0.82352E-03   -0.82308E-03    96   0.259E-02 0.116E-04
CGA:  14    -0.609185738328E+02   -0.25682E-03   -0.25746E-03    96   0.135E-02 0.217E-04
CGA:  15    -0.609187283262E+02   -0.15449E-03   -0.15456E-03    96   0.905E-03 0.103E-04
CGA:  16    -0.609188409120E+02   -0.11259E-03   -0.11255E-03    96   0.510E-03 0.721E-05
CGA:  17    -0.609189155318E+02   -0.74620E-04   -0.74469E-04    96   0.219E-03 0.603E-05
   2 F= -.60918916E+02 E0= -.60895960E+02  d E =-.609189E+02
       N       E                     dE             d eps       ncg     rms          ort
SDA:   1     0.333195935161E+02    0.94238E+02    0.00000E+00    96   0.338E+03 0.000E+00
CGA:   2    -0.368484927596E+02   -0.70168E+02   -0.66993E+02    96   0.864E+02 0.325E+02
CGA:   3    -0.490538100782E+02   -0.12205E+02   -0.12199E+02    96   0.621E+02 0.183E+01
CGA:   4    -0.594937955928E+02   -0.10440E+02   -0.12782E+02    96   0.329E+02-0.160E+02
CGA:   5    -0.616787186228E+02   -0.21849E+01   -0.21671E+01    96   0.252E+02-0.340E+01
CGA:   6    -0.627079906993E+02   -0.10293E+01   -0.12609E+01    96   0.234E+02-0.500E+01
CGA:   7    -0.642853435187E+02   -0.15774E+01   -0.13599E+01    96   0.771E+01 0.123E+01
CGA:   8    -0.647032016130E+02   -0.41786E+00   -0.46721E+00    96   0.767E+01-0.627E+00
CGA:   9    -0.651387616552E+02   -0.43556E+00   -0.42604E+00    96   0.711E+01 0.142E+00
CGA:  10    -0.654203879920E+02   -0.28163E+00   -0.32657E+00    96   0.409E+01-0.795E+00
CGA:  11    -0.656093458964E+02   -0.18896E+00   -0.20341E+00    96   0.244E+01-0.142E+00
CGA:  12    -0.657331649313E+02   -0.12382E+00   -0.12075E+00    96   0.122E+01 0.231E-01
CGA:  13    -0.658180254962E+02   -0.84861E-01   -0.84284E-01    96   0.104E+01-0.495E-03
CGA:  14    -0.658700010114E+02   -0.51976E-01   -0.49774E-01    96   0.397E+00 0.236E-01
CGA:  15    -0.658998565229E+02   -0.29856E-01   -0.30426E-01    96   0.472E+00 0.336E-02
CGA:  16    -0.659266725099E+02   -0.26816E-01   -0.26211E-01    96   0.262E+00 0.371E-02
CGA:  17    -0.659449630483E+02   -0.18291E-01   -0.18133E-01    96   0.206E+00-0.462E-03
CGA:  18    -0.659547640485E+02   -0.98010E-02   -0.10251E-01    96   0.796E-01-0.386E-02
CGA:  19    -0.659597818862E+02   -0.50178E-02   -0.50349E-02    96   0.811E-01 0.149E-03
CGA:  20    -0.659662761921E+02   -0.64943E-02   -0.64940E-02    96   0.583E-01 0.113E-03
CGA:  21    -0.659698388470E+02   -0.35627E-02   -0.35577E-02    96   0.399E-01 0.801E-04
CGA:  22    -0.659721147965E+02   -0.22759E-02   -0.22816E-02    96   0.162E-01 0.225E-04
CGA:  23    -0.659731398881E+02   -0.10251E-02   -0.10246E-02    96   0.160E-01-0.142E-04
CGA:  24    -0.659745326371E+02   -0.13927E-02   -0.13928E-02    96   0.120E-01-0.993E-04
CGA:  25    -0.659751833605E+02   -0.65072E-03   -0.64923E-03    96   0.727E-02-0.492E-04
CGA:  26    -0.659756781314E+02   -0.49477E-03   -0.49458E-03    96   0.428E-02-0.311E-04
CGA:  27    -0.659759334623E+02   -0.25533E-03   -0.25515E-03    96   0.334E-02-0.121E-04
CGA:  28    -0.659761924518E+02   -0.25899E-03   -0.25897E-03    96   0.206E-02-0.592E-05
CGA:  29    -0.659763044988E+02   -0.11205E-03   -0.11204E-03    96   0.145E-02 0.627E-07
CGA:  30    -0.659764420066E+02   -0.13751E-03   -0.13739E-03    96   0.146E-02 0.923E-05
CGA:  31    -0.659765226573E+02   -0.80651E-04   -0.80909E-04    96   0.802E-03 0.105E-04
   3 F= -.65976523E+02 E0= -.65951403E+02  d E =-.659765E+02
       N       E                     dE             d eps       ncg     rms          ort
SDA:   1     0.351954761207E+02    0.10117E+03    0.00000E+00    96   0.397E+03 0.000E+00
CGA:   2    -0.338011700054E+02   -0.68997E+02   -0.62210E+02    96   0.100E+03 0.760E+02
CGA:   3    -0.544467358291E+02   -0.20646E+02   -0.18738E+02    96   0.839E+02 0.240E+02
CGA:   4    -0.580940646930E+02   -0.36473E+01   -0.58652E+01    96   0.992E+02-0.156E+01
CGA:   5    -0.618541639591E+02   -0.37601E+01   -0.46645E+01    96   0.547E+02-0.127E+02
CGA:   6    -0.651048715807E+02   -0.32507E+01   -0.32153E+01    96   0.259E+02-0.331E+01
CGA:   7    -0.671777692836E+02   -0.20729E+01   -0.20769E+01    96   0.143E+02-0.107E+01
CGA:   8    -0.680132852182E+02   -0.83552E+00   -0.73867E+00    96   0.814E+01 0.248E+00
CGA:   9    -0.688302277493E+02   -0.81694E+00   -0.83913E+00    96   0.152E+02-0.679E+00
CGA:  10    -0.691533092523E+02   -0.32308E+00   -0.29356E+00    96   0.561E+01 0.583E+00
CGA:  11    -0.693985712860E+02   -0.24526E+00   -0.30708E+00    96   0.679E+01 0.198E+00
CGA:  12    -0.696573137829E+02   -0.25874E+00   -0.24059E+00    96   0.217E+01 0.164E+00
CGA:  13    -0.697892717783E+02   -0.13196E+00   -0.13434E+00    96   0.138E+01 0.356E-01
CGA:  14    -0.698802385007E+02   -0.90967E-01   -0.91569E-01    96   0.186E+01 0.194E-01
CGA:  15    -0.699899405593E+02   -0.10970E+00   -0.10922E+00    96   0.650E+00-0.383E-02
CGA:  16    -0.700183409012E+02   -0.28400E-01   -0.29784E-01    96   0.285E+00-0.447E-02
CGA:  17    -0.700477226893E+02   -0.29382E-01   -0.28786E-01    96   0.344E+00 0.157E-01
CGA:  18    -0.700714532012E+02   -0.23731E-01   -0.23499E-01    96   0.139E+00-0.857E-02
CGA:  19    -0.700827153836E+02   -0.11262E-01   -0.11326E-01    96   0.108E+00-0.403E-02
CGA:  20    -0.700914817096E+02   -0.87663E-02   -0.87897E-02    96   0.563E-01-0.138E-02
CGA:  21    -0.700951035650E+02   -0.36219E-02   -0.36289E-02    96   0.508E-01 0.357E-03
CGA:  22    -0.701002766961E+02   -0.51731E-02   -0.51590E-02    96   0.294E-01 0.422E-03
CGA:  23    -0.701022056988E+02   -0.19290E-02   -0.19239E-02    96   0.168E-01-0.222E-03
CGA:  24    -0.701035974411E+02   -0.13917E-02   -0.13928E-02    96   0.147E-01-0.122E-03
CGA:  25    -0.701047641117E+02   -0.11667E-02   -0.11670E-02    96   0.845E-02-0.652E-04
CGA:  26    -0.701053845222E+02   -0.62041E-03   -0.62044E-03    96   0.667E-02 0.161E-04
CGA:  27    -0.701058332612E+02   -0.44874E-03   -0.44841E-03    96   0.272E-02-0.594E-05
CGA:  28    -0.701061546628E+02   -0.32140E-03   -0.32339E-03    96   0.419E-02-0.435E-04
CGA:  29    -0.701064016813E+02   -0.24702E-03   -0.24652E-03    96   0.147E-02-0.206E-04
CGA:  30    -0.701065034110E+02   -0.10173E-03   -0.10192E-03    96   0.100E-02 0.247E-04
CGA:  31    -0.701065872040E+02   -0.83793E-04   -0.83561E-04    96   0.908E-03 0.357E-04
   4 F= -.70106587E+02 E0= -.70076676E+02  d E =-.701066E+02
       N       E                     dE             d eps       ncg     rms          ort
SDA:   1    -0.700998896981E+02    0.66137E-02    0.00000E+00    96   0.114E+00 0.000E+00
   5 F= -.70099890E+02 E0= -.70069526E+02  d E =-.700999E+02
