Writing VASP input files
Starting VASP for initial step...
 running   32 mpi-ranks, with    1 threads/rank, on    1 nodes
 distrk:  each k-point on   32 cores,    1 groups
 distr:  one band on   16 cores,    2 groups
 vasp.6.4.0 14Feb23 (build Oct 13 2023 04:11:21) complex                        
  
 POSCAR found type information on POSCAR ClK Na
 POSCAR found :  3 types and      28 ions
 scaLAPACK will be used
 WARNING: PSMAXN for non-local potential too small
 LDA part: xc-table for Pade appr. of Perdew
 POSCAR, INCAR and KPOINTS ok, starting setup
 FFT: planning ... GRIDC
 FFT: planning ... GRID_SOFT
 FFT: planning ... GRID
 WAVECAR not read
 augmentation electrons   159.991493690913     
 soft         electrons  0.000000000000000E+000
 total        electrons   159.991493690913     
 augmentation electrons   297.363901676326     
 soft         electrons  0.000000000000000E+000
 total        electrons   297.363901676326     
 WARNING: random wavefunctions but no delay for mixing, default for NELMDL
 entering main loop
       N       E                     dE             d eps       ncg     rms          ort
DAV:   1     0.143977370967E+04    0.14398E+04   -0.74191E+04    96   0.174E+03
DAV:   2     0.163701712944E+03   -0.12761E+04   -0.12301E+04    96   0.352E+02
DAV:   3    -0.609378498365E+02   -0.22464E+03   -0.21616E+03    96   0.113E+02
DAV:   4    -0.761198768980E+02   -0.15182E+02   -0.15069E+02    96   0.308E+01
DAV:   5    -0.765996658523E+02   -0.47979E+00   -0.47961E+00    96   0.598E+00
 gam= 0.000 g(H,U,f)=  0.118E+03 0.148E+02 0.106E-11 ort(H,U,f) = 0.000E+00 0.000E+00 0.000E+00
SDA:   6    -0.227881034955E+02    0.53812E+02   -0.47961E+00    96   0.132E+03 0.000E+00
 gam= 0.000 trial= 0.400  step= 0.372 mean= 0.400
 gam= 0.477 g(H,U,f)=  0.455E+02 0.159E+02 0.167E+01 ort(H,U,f) =-0.586E+02-0.387E+01-0.248E+00
CGA:   7    -0.492044908732E+02   -0.26416E+02   -0.24639E+02    96   0.631E+02-0.628E+02
 gam= 0.477 trial= 0.399  step= 0.118 mean= 0.399
 gam= 0.639 g(H,U,f)=  0.324E+02 0.747E+01 0.429E+00 ort(H,U,f) = 0.633E+01-0.143E+02 0.356E+00
CGA:   8    -0.524315006616E+02   -0.32270E+01   -0.19490E+01    96   0.403E+02-0.764E+01
 gam= 0.639 trial= 0.385  step= 0.203 mean= 0.385
 gam= 1.187 g(H,U,f)=  0.119E+02 0.319E+02 0.411E+01 ort(H,U,f) = 0.520E+01-0.605E+01 0.267E+01
CGA:   9    -0.555739377731E+02   -0.31424E+01   -0.35971E+01    96   0.478E+02 0.182E+01
 gam= 1.187 trial= 0.375  step= 0.070 mean= 0.375
 gam= 0.518 g(H,U,f)=  0.763E+01 0.171E+02 0.140E-02 ort(H,U,f) =-0.136E+01-0.246E+01-0.108E+00
CGA:  10    -0.572504494539E+02   -0.16765E+01   -0.17563E+01    96   0.248E+02-0.392E+01
 gam= 0.518 trial= 0.360  step= 0.101 mean= 0.360
 gam= 0.000 g(H,U,f)=  0.653E+01 0.953E+01 0.155E+01 ort(H,U,f) =-0.290E+01-0.672E+01-0.343E+01
CGA:  11    -0.577425000984E+02   -0.49205E+00   -0.11486E+01    96   0.176E+02-0.130E+02
 gam= 0.000 trial= 0.347  step= 0.143 mean= 0.347
 gam= 0.330 g(H,U,f)=  0.203E+01 0.279E+01 0.985E+00 ort(H,U,f) = 0.250E+01-0.212E+01-0.147E+01
CGA:  12    -0.590017795672E+02   -0.12593E+01   -0.12560E+01    96   0.581E+01-0.108E+01
 gam= 0.330 trial= 0.337  step= 0.184 mean= 0.337
 gam= 0.149 g(H,U,f)=  0.429E+00 0.397E+00 0.395E-01 ort(H,U,f) = 0.579E+00-0.211E+00-0.130E+00
CGA:  13    -0.595456452996E+02   -0.54387E+00   -0.50062E+00    96   0.865E+00 0.237E+00
 gam= 0.149 trial= 0.329  step= 0.603 mean= 0.329
 gam= 0.000 g(H,U,f)=  0.635E+00 0.959E+00 0.549E+00 ort(H,U,f) = 0.195E-01-0.637E+00-0.233E+00
CGA:  14    -0.597389078537E+02   -0.19326E+00   -0.27134E+00    96   0.214E+01-0.850E+00
 gam= 0.000 trial= 0.343  step= 0.159 mean= 0.343
 gam= 0.324 g(H,U,f)=  0.134E+00 0.313E+00 0.247E+00 ort(H,U,f) = 0.180E+00-0.151E+00-0.293E+00
CGA:  15    -0.598594597293E+02   -0.12055E+00   -0.17045E+00    96   0.694E+00-0.264E+00
 gam= 0.324 trial= 0.334  step= 0.151 mean= 0.334
 gam= 0.275 g(H,U,f)=  0.342E-01 0.149E+00 0.833E-02 ort(H,U,f) = 0.546E-01-0.523E-01-0.225E-01
CGA:  16    -0.599031676600E+02   -0.43708E-01   -0.46086E-01    96   0.191E+00-0.202E-01
 gam= 0.275 trial= 0.325  step= 0.302 mean= 0.325
 gam= 1.151 g(H,U,f)=  0.399E-01 0.174E+00 0.639E-02 ort(H,U,f) = 0.238E-01-0.324E-01-0.459E-03
CGA:  17    -0.599314165030E+02   -0.28249E-01   -0.27979E-01    96   0.220E+00-0.913E-02
 gam= 1.151 trial= 0.324  step= 0.152 mean= 0.324
 gam= 0.531 g(H,U,f)=  0.380E-01 0.658E-01 0.130E-01 ort(H,U,f) = 0.588E-01-0.160E-01-0.171E-01
CGA:  18    -0.599503254948E+02   -0.18909E-01   -0.15929E-01    96   0.117E+00 0.257E-01
 gam= 0.531 trial= 0.315  step= 0.156 mean= 0.315
 gam= 0.805 g(H,U,f)=  0.236E-01 0.643E-01 0.617E-02 ort(H,U,f) = 0.329E-01-0.279E-01-0.595E-02
CGA:  19    -0.599604324077E+02   -0.10107E-01   -0.10203E-01    96   0.940E-01-0.959E-03
 gam= 0.805 trial= 0.307  step= 0.174 mean= 0.307
 gam= 0.603 g(H,U,f)=  0.152E-01 0.277E-01 0.138E-01 ort(H,U,f) = 0.711E-02-0.714E-02-0.594E-03
CGA:  20    -0.599684950707E+02   -0.80627E-02   -0.81273E-02    96   0.567E-01-0.626E-03
 gam= 0.603 trial= 0.300  step= 0.135 mean= 0.300
 gam= 0.504 g(H,U,f)=  0.803E-02 0.175E-01 0.304E-02 ort(H,U,f) = 0.714E-02-0.358E-02-0.235E-02
CGA:  21    -0.599724546393E+02   -0.39596E-02   -0.38111E-02    96   0.286E-01 0.121E-02
 gam= 0.504 trial= 0.292  step= 0.134 mean= 0.292
 gam= 0.536 g(H,U,f)=  0.284E-02 0.610E-02 0.637E-02 ort(H,U,f) = 0.506E-02-0.111E-02-0.290E-02
CGA:  22    -0.599745215147E+02   -0.20669E-02   -0.19517E-02    96   0.153E-01 0.104E-02
 gam= 0.536 trial= 0.284  step= 0.124 mean= 0.284
 gam= 0.486 g(H,U,f)=  0.190E-02 0.451E-02 0.103E-02 ort(H,U,f) = 0.233E-02-0.152E-02-0.102E-02
CGA:  23    -0.599754887055E+02   -0.96719E-03   -0.98625E-03    96   0.744E-02-0.206E-03
 gam= 0.486 trial= 0.276  step= 0.191 mean= 0.276
 gam= 1.123 g(H,U,f)=  0.177E-02 0.262E-02 0.396E-02 ort(H,U,f) = 0.187E-02-0.378E-03-0.149E-02
CGA:  24    -0.599761759534E+02   -0.68725E-03   -0.70044E-03    96   0.835E-02 0.587E-05
 gam= 1.123 trial= 0.272  step= 0.148 mean= 0.272
 gam= 0.413 g(H,U,f)=  0.102E-02 0.190E-02 0.527E-03 ort(H,U,f) = 0.163E-02-0.120E-02-0.375E-03
CGA:  25    -0.599767994990E+02   -0.62355E-03   -0.61943E-03    96   0.345E-02 0.587E-04
 gam= 0.413 trial= 0.266  step= 0.149 mean= 0.266
 gam= 0.726 g(H,U,f)=  0.644E-03 0.815E-03 0.104E-02 ort(H,U,f) = 0.669E-03-0.238E-04-0.584E-03
CGA:  26    -0.599770572773E+02   -0.25778E-03   -0.25779E-03    96   0.250E-02 0.610E-04
 gam= 0.726 trial= 0.260  step= 0.152 mean= 0.260
 gam= 0.502 g(H,U,f)=  0.478E-03 0.614E-03 0.165E-03 ort(H,U,f) = 0.390E-03-0.262E-03-0.955E-04
CGA:  27    -0.599772486703E+02   -0.19139E-03   -0.19341E-03    96   0.126E-02 0.327E-04
 gam= 0.502 trial= 0.255  step= 0.167 mean= 0.255
 gam= 0.960 g(H,U,f)=  0.288E-03 0.357E-03 0.562E-03 ort(H,U,f) = 0.399E-03-0.120E-03-0.287E-03
CGA:  28    -0.599773550182E+02   -0.10635E-03   -0.10636E-03    96   0.121E-02-0.768E-05
 gam= 0.960 trial= 0.250  step= 0.169 mean= 0.250
 gam= 0.497 g(H,U,f)=  0.130E-03 0.337E-03 0.133E-03 ort(H,U,f) = 0.245E-03-0.267E-03 0.736E-05
CGA:  29    -0.599774571619E+02   -0.10214E-03   -0.10154E-03    96   0.600E-03-0.150E-04
 gam= 0.497 trial= 0.246  step= 0.140 mean= 0.246
 gam= 0.688 g(H,U,f)=  0.110E-03 0.143E-03 0.159E-03 ort(H,U,f) = 0.136E-03 0.114E-05-0.134E-03
CGA:  30    -0.599774988382E+02   -0.41676E-04   -0.41580E-04    96   0.413E-03 0.270E-05
 gam= 0.688 trial= 0.241  step= 0.166 mean= 0.241
 final diagonalization
FORCES:
     0.1515047    -0.0747794    -0.1381057
    -0.1339771     0.7530168     0.6489437
     1.0405847    -0.9026284     0.0020711
    -0.3260013    -0.4436896     0.5581164
    -0.0540432    -0.7730649    -0.4358966
    -0.0012910     0.9320418     0.0627508
    -0.1148922    -2.1381872     0.9181441
     0.4444984     0.2316091    -0.0052648
    -0.0328869     1.6732508     0.4473293
    -0.7869533    -2.0962349    -0.4603897
    -0.9694415    -0.7456772    -0.7472829
     0.0951854     0.9290181    -0.5096683
     0.1197906     2.0376826    -0.2322262
     0.0405092     0.6294091    -0.0650571
     1.1446094     2.1511498     0.2231464
    -0.1638895     0.7229064    -0.0918766
    -0.4778055    -0.8970086     0.1167825
     1.2150328     1.3606983    -0.0004180
    -0.8642971     0.6193480    -0.8349361
     0.6205991    -1.0889282    -0.7033890
    -1.2569341     1.3325553     0.2201324
    -0.3467291    -2.2422352    -0.1472097
    -0.0460585     0.7744359    -0.3117473
     0.1048408    -1.7085168     0.0306833
    -0.0713276     1.3591893     0.2138414
     0.2754563     1.3598287     0.2463244
     0.9475042    -1.8350653     0.5810166
    -0.5535877    -1.9201243     0.4141856
   1 F= -.59977499E+02 E0= -.59953753E+02  d E =-.599775E+02
POSITIONS: reading from stdin
Inputting positions...
New scaled positions
     0.6477288     0.3191939     0.2578426
     0.6462486     0.4672226     0.5852498
     0.5844067     0.1871891     0.9483716
     0.0534742     0.3091068     0.2608056
     0.5405902     0.1298802     0.5549570
     0.3627941     0.3602593     0.7531822
     0.3078832     0.0902102     0.1598900
     0.7042247     0.8227321     0.5404878
     0.0833959     0.4998948     0.5791194
     0.3340896     0.0054346     0.8045397
     0.0952350     0.2365166     0.9151488
     0.8313455     0.6942815     0.1568281
     0.3495100     0.4234569     0.0874909
     0.3526965     0.3783601     0.4161876
     0.1535522     0.1597273     0.5651669
     0.3794415     0.7734220     0.0392081
     0.0703336     0.8323442     0.6609363
     0.3330356     0.8960007     0.4332495
     0.9850820     0.9538846     0.3399245
     0.4007248     0.6876343     0.6950527
     0.8456158     0.1019386     0.7117954
     0.1207083     0.5846159     0.9074334
     0.6683210     0.8668342     0.8847008
     0.6188824     0.5311003     0.9292736
     0.6193084     0.9678612     0.2300992
     0.0572425     0.9107029     0.0031506
     0.5267196     0.6379384     0.3094626
     0.1597627     0.6443972     0.2691600
Old scaled positions
     0.6475072     0.3193033     0.2580447
     0.6464446     0.4661210     0.5843004
     0.5828844     0.1885096     0.9483686
     0.0539511     0.3097559     0.2599891
     0.5406693     0.1310112     0.5555947
     0.3627960     0.3588958     0.7530904
     0.3080513     0.0933382     0.1585468
     0.7035744     0.8223933     0.5404955
     0.0834440     0.4974469     0.5784650
     0.3352409     0.0085013     0.8052132
     0.0966533     0.2376074     0.9162420
     0.8312062     0.6929224     0.1575737
     0.3493348     0.4204759     0.0878307
     0.3526372     0.3774393     0.4162828
     0.1518776     0.1565802     0.5648405
     0.3796813     0.7723644     0.0393425
     0.0710326     0.8336565     0.6607654
     0.3312580     0.8940101     0.4332501
     0.9863464     0.9529785     0.3411460
     0.3998169     0.6892274     0.6960817
     0.8474546     0.0999891     0.7114734
     0.1212155     0.5878962     0.9076487
     0.6683884     0.8657012     0.8851569
     0.6187290     0.5335998     0.9292287
     0.6194127     0.9658727     0.2297863
     0.0568395     0.9087136     0.0027903
     0.5253334     0.6406230     0.3086126
     0.1605726     0.6472063     0.2685541
POSITIONS: read from stdin
LATTICE: reading from stdin
New   direct lattice vectors                   reciprocal lattice vectors
       9.7649645    0.0000000    0.0000000       0.1024069    0.0000000    0.0000000
       0.0000000    9.7649645    0.0000000       0.0000000    0.1024069    0.0000000
       0.0000000    0.0000000    9.7649645       0.0000000    0.0000000    0.1024069


Old   direct lattice vectors                   reciprocal lattice vectors
       9.7649645    0.0000000    0.0000000       0.1024069    0.0000000    0.0000000
       0.0000000    9.7649645    0.0000000       0.0000000    0.1024069    0.0000000
       0.0000000    0.0000000    9.7649645       0.0000000    0.0000000    0.1024069


LATTICE: read from stdin
 bond charge predicted
 wavefunctions rotated
       N       E                     dE             d eps       ncg     rms          ort
 gam= 0.000 g(H,U,f)=  0.110E+02 0.906E+00 0.955E-02 ort(H,U,f) = 0.000E+00 0.000E+00 0.000E+00
SDA:   1    -0.578118576685E+02    0.21656E+01    0.00000E+00    96   0.119E+02 0.000E+00
 gam= 0.000 trial= 0.237  step= 0.349 mean= 0.237
 gam= 0.000 g(H,U,f)=  0.332E+01 0.138E+02 0.297E+01 ort(H,U,f) = 0.912E+00-0.591E+01-0.126E+01
CGA:   2    -0.595222815704E+02   -0.17104E+01   -0.20692E+01    96   0.201E+02-0.626E+01
 gam= 0.000 trial= 0.243  step= 0.127 mean= 0.243
 gam= 0.126 g(H,U,f)=  0.133E+01 0.108E+01 0.120E+00 ort(H,U,f) = 0.684E+00-0.194E+01-0.104E+00
CGA:   3    -0.602325850412E+02   -0.71030E+00   -0.12723E+01    96   0.253E+01-0.136E+01
 gam= 0.126 trial= 0.237  step= 0.214 mean= 0.237
 gam= 0.682 g(H,U,f)=  0.787E+00 0.932E+00 0.249E-02 ort(H,U,f) = 0.794E+00-0.704E+00-0.420E-02
CGA:   4    -0.604815065649E+02   -0.24892E+00   -0.25148E+00    96   0.172E+01 0.853E-01
 gam= 0.682 trial= 0.236  step= 0.306 mean= 0.236
 gam= 0.775 g(H,U,f)=  0.329E+00 0.860E+00 0.145E+00 ort(H,U,f) = 0.375E+00-0.492E+00-0.313E-01
CGA:   5    -0.607466028543E+02   -0.26510E+00   -0.27200E+00    96   0.133E+01-0.148E+00
 gam= 0.775 trial= 0.239  step= 0.158 mean= 0.239
 gam= 0.307 g(H,U,f)=  0.150E+00 0.133E+00 0.126E+00 ort(H,U,f) = 0.203E+00-0.851E-01-0.119E+00
CGA:   6    -0.608412325148E+02   -0.94630E-01   -0.96319E-01    96   0.409E+00-0.141E-02
 gam= 0.307 trial= 0.235  step= 0.182 mean= 0.235
 gam= 0.274 g(H,U,f)=  0.609E-01 0.194E-01 0.320E-01 ort(H,U,f) = 0.801E-01-0.367E-01-0.464E-01
CGA:   7    -0.608787450606E+02   -0.37513E-01   -0.37105E-01    96   0.112E+00-0.307E-02
 gam= 0.274 trial= 0.232  step= 0.354 mean= 0.232
 gam= 0.913 g(H,U,f)=  0.296E-01 0.284E-01 0.445E-01 ort(H,U,f) = 0.302E-01-0.532E-02-0.219E-01
CGA:   8    -0.608986577575E+02   -0.19913E-01   -0.19703E-01    96   0.103E+00 0.295E-02
 gam= 0.913 trial= 0.239  step= 0.218 mean= 0.239
 gam= 0.354 g(H,U,f)=  0.138E-01 0.144E-01 0.806E-02 ort(H,U,f) = 0.154E-01-0.581E-02-0.106E-01
CGA:   9    -0.609101684293E+02   -0.11511E-01   -0.11483E-01    96   0.363E-01-0.102E-02
 gam= 0.354 trial= 0.237  step= 0.199 mean= 0.237
 gam= 0.671 g(H,U,f)=  0.701E-02 0.156E-01 0.170E-02 ort(H,U,f) = 0.906E-02-0.702E-02-0.204E-02
CGA:  10    -0.609137427840E+02   -0.35744E-02   -0.35753E-02    96   0.243E-01-0.455E-05
 gam= 0.671 trial= 0.236  step= 0.225 mean= 0.236
 gam= 0.357 g(H,U,f)=  0.320E-02 0.531E-02 0.190E-03 ort(H,U,f) = 0.341E-02-0.357E-02 0.695E-04
CGA:  11    -0.609164877686E+02   -0.27450E-02   -0.27445E-02    96   0.870E-02-0.932E-04
 gam= 0.357 trial= 0.235  step= 0.232 mean= 0.235
 gam= 0.560 g(H,U,f)=  0.181E-02 0.266E-02 0.397E-03 ort(H,U,f) = 0.187E-02-0.157E-02-0.295E-03
CGA:  12    -0.609174934936E+02   -0.10057E-02   -0.10057E-02    96   0.487E-02 0.172E-05
 gam= 0.560 trial= 0.235  step= 0.338 mean= 0.235
 gam= 0.532 g(H,U,f)=  0.710E-03 0.185E-02 0.368E-04 ort(H,U,f) = 0.598E-03-0.514E-03-0.726E-04
CGA:  13    -0.609183170107E+02   -0.82352E-03   -0.82308E-03    96   0.259E-02 0.116E-04
 gam= 0.532 trial= 0.240  step= 0.198 mean= 0.240
 gam= 0.522 g(H,U,f)=  0.431E-03 0.792E-03 0.131E-03 ort(H,U,f) = 0.359E-03-0.332E-03-0.514E-05
CGA:  14    -0.609185738328E+02   -0.25682E-03   -0.25746E-03    96   0.135E-02 0.217E-04
 gam= 0.522 trial= 0.238  step= 0.226 mean= 0.238
 gam= 0.668 g(H,U,f)=  0.265E-03 0.303E-03 0.337E-03 ort(H,U,f) = 0.257E-03-0.416E-04-0.206E-03
CGA:  15    -0.609187283262E+02   -0.15449E-03   -0.15456E-03    96   0.905E-03 0.103E-04
 gam= 0.668 trial= 0.237  step= 0.247 mean= 0.237
 gam= 0.564 g(H,U,f)=  0.161E-03 0.186E-03 0.164E-03 ort(H,U,f) = 0.164E-03-0.212E-04-0.136E-03
CGA:  16    -0.609188409120E+02   -0.11259E-03   -0.11255E-03    96   0.510E-03 0.721E-05
 gam= 0.564 trial= 0.238  step= 0.290 mean= 0.238
 gam= 0.429 g(H,U,f)=  0.835E-04 0.531E-04 0.824E-04 ort(H,U,f) = 0.819E-04-0.167E-04-0.592E-04
CGA:  17    -0.609189155318E+02   -0.74620E-04   -0.74469E-04    96   0.219E-03 0.603E-05
 gam= 0.429 trial= 0.240  step= 0.254 mean= 0.240
 final diagonalization
FORCES:
     0.1654008    -0.0575541    -0.1197354
    -0.1242332     0.7397240     0.6409908
     1.0238919    -0.9335114    -0.0012072
    -0.3265691    -0.4342639     0.5631742
    -0.0683725    -0.7362240    -0.4495901
     0.0095062     0.9107086     0.0609478
    -0.1106660    -2.0712274     0.8867999
     0.4494332     0.2204486     0.0011295
    -0.0325872     1.6561397     0.4212314
    -0.7611371    -2.0390790    -0.4483900
    -0.9724064    -0.7630055    -0.7257487
     0.0789330     0.9037934    -0.5023421
     0.1215153     1.9940381    -0.2022937
     0.0511476     0.6464247    -0.0708148
     1.0903077     2.0716167     0.2156738
    -0.1621732     0.6926685    -0.0786016
    -0.4658951    -0.8645858     0.0813149
     1.1603162     1.3201934     0.0140301
    -0.8132500     0.6248823    -0.7767711
     0.5963236    -1.0898497    -0.6965206
    -1.2159208     1.3188828     0.1947954
    -0.3219852    -2.1791737    -0.1484293
    -0.0645117     0.7702750    -0.3113471
     0.0774287    -1.6892537     0.0232281
    -0.0805932     1.3672687     0.2094321
     0.3026685     1.3460049     0.2269919
     0.9245318    -1.8245989     0.5700268
    -0.5311040    -1.9007423     0.4220251
   2 F= -.60918916E+02 E0= -.60895960E+02  d E =-.609189E+02
POSITIONS: reading from stdin
Inputting positions...
New scaled positions
     0.6491665     0.3186901     0.2567973
     0.6451655     0.4736644     0.5908312
     0.5933228     0.1790675     0.9483616
     0.0506314     0.3053248     0.2657074
     0.5399974     0.1234651     0.5510454
     0.3628751     0.3681909     0.7537130
     0.3069191     0.0721684     0.1676151
     0.7081364     0.8246530     0.5404966
     0.0831122     0.5143150     0.5827906
     0.3274594     0.9876743     0.8006343
     0.0867703     0.2298771     0.9088273
     0.8320353     0.7021534     0.1524538
     0.3505676     0.4408229     0.0857250
     0.3531400     0.3839847     0.4155721
     0.1630525     0.1777745     0.5670457
     0.3780295     0.7794568     0.0385217
     0.0662758     0.8248124     0.6616499
     0.3431455     0.9075001     0.4333693
     0.9779940     0.9593236     0.3331530
     0.4059200     0.6781469     0.6889880
     0.8350240     0.1134222     0.7134953
     0.1179012     0.5656351     0.9061414
     0.6677624     0.8735404     0.8819904
     0.6195609     0.5163915     0.9294770
     0.6186083     0.9797625     0.2319231
     0.0598729     0.9224227     0.0051298
     0.5347717     0.6220528     0.3144267
     0.1551356     0.6278474     0.2728326
Old scaled positions
     0.6475072     0.3193033     0.2580447
     0.6464446     0.4661210     0.5843004
     0.5828844     0.1885096     0.9483686
     0.0539511     0.3097559     0.2599891
     0.5406693     0.1310112     0.5555947
     0.3627960     0.3588958     0.7530904
     0.3080513     0.0933382     0.1585468
     0.7035744     0.8223933     0.5404955
     0.0834440     0.4974469     0.5784650
     0.3352409     0.0085013     0.8052132
     0.0966533     0.2376074     0.9162420
     0.8312062     0.6929224     0.1575737
     0.3493348     0.4204759     0.0878307
     0.3526372     0.3774393     0.4162828
     0.1518776     0.1565802     0.5648405
     0.3796813     0.7723644     0.0393425
     0.0710326     0.8336565     0.6607654
     0.3312580     0.8940101     0.4332501
     0.9863464     0.9529785     0.3411460
     0.3998169     0.6892274     0.6960817
     0.8474546     0.0999891     0.7114734
     0.1212155     0.5878962     0.9076487
     0.6683884     0.8657012     0.8851569
     0.6187290     0.5335998     0.9292287
     0.6194127     0.9658727     0.2297863
     0.0568395     0.9087136     0.0027903
     0.5253334     0.6406230     0.3086126
     0.1605726     0.6472063     0.2685541
POSITIONS: read from stdin
LATTICE: reading from stdin
New   direct lattice vectors                   reciprocal lattice vectors
       9.7649645    0.0000000    0.0000000       0.1024069    0.0000000    0.0000000
       0.0000000    9.7649645    0.0000000       0.0000000    0.1024069    0.0000000
       0.0000000    0.0000000    9.7649645       0.0000000    0.0000000    0.1024069


Old   direct lattice vectors                   reciprocal lattice vectors
       9.7649645    0.0000000    0.0000000       0.1024069    0.0000000    0.0000000
       0.0000000    9.7649645    0.0000000       0.0000000    0.1024069    0.0000000
       0.0000000    0.0000000    9.7649645       0.0000000    0.0000000    0.1024069


LATTICE: read from stdin
 bond charge predicted
 wavefunctions rotated
       N       E                     dE             d eps       ncg     rms          ort
 gam= 0.000 g(H,U,f)=  0.317E+03 0.195E+02 0.206E+01 ort(H,U,f) = 0.000E+00 0.000E+00 0.000E+00
SDA:   1     0.333195935161E+02    0.94238E+02    0.00000E+00    96   0.338E+03 0.000E+00
 gam= 0.000 trial= 0.241  step= 0.396 mean= 0.241
 gam= 0.255 g(H,U,f)=  0.607E+02 0.254E+02 0.259E+00 ort(H,U,f) = 0.395E+02-0.671E+01-0.222E+00
CGA:   2    -0.368484927596E+02   -0.70168E+02   -0.66993E+02    96   0.864E+02 0.325E+02
 gam= 0.255 trial= 0.249  step= 0.258 mean= 0.249
 gam= 0.719 g(H,U,f)=  0.356E+02 0.233E+02 0.326E+01 ort(H,U,f) = 0.165E+02-0.122E+02-0.246E+01
CGA:   3    -0.490538100782E+02   -0.12205E+02   -0.12199E+02    96   0.621E+02 0.183E+01
 gam= 0.719 trial= 0.249  step= 0.403 mean= 0.249
 gam= 0.529 g(H,U,f)=  0.174E+02 0.347E+01 0.120E+02 ort(H,U,f) =-0.928E+01-0.201E+01-0.475E+01
CGA:   4    -0.594937955928E+02   -0.10440E+02   -0.12782E+02    96   0.329E+02-0.160E+02
 gam= 0.529 trial= 0.257  step= 0.178 mean= 0.257
 gam= 0.767 g(H,U,f)=  0.110E+02 0.119E+02 0.226E+01 ort(H,U,f) = 0.278E+01-0.219E+01-0.399E+01
CGA:   5    -0.616787186228E+02   -0.21849E+01   -0.21671E+01    96   0.252E+02-0.340E+01
 gam= 0.767 trial= 0.253  step= 0.112 mean= 0.253
 gam= 0.930 g(H,U,f)=  0.761E+01 0.896E+01 0.686E+01 ort(H,U,f) = 0.630E+01-0.817E+01-0.313E+01
CGA:   6    -0.627079906993E+02   -0.10293E+01   -0.12609E+01    96   0.234E+02-0.500E+01
 gam= 0.930 trial= 0.246  step= 0.145 mean= 0.246
 gam= 0.329 g(H,U,f)=  0.358E+01 0.364E+01 0.482E+00 ort(H,U,f) = 0.189E+01-0.175E+01 0.108E+01
CGA:   7    -0.642853435187E+02   -0.15774E+01   -0.13599E+01    96   0.771E+01 0.123E+01
 gam= 0.329 trial= 0.241  step= 0.115 mean= 0.241
 gam= 0.994 g(H,U,f)=  0.257E+01 0.195E+01 0.315E+01 ort(H,U,f) = 0.211E+01-0.140E+01-0.134E+01
CGA:   8    -0.647032016130E+02   -0.41786E+00   -0.46721E+00    96   0.767E+01-0.627E+00
 gam= 0.994 trial= 0.235  step= 0.121 mean= 0.235
 gam= 0.928 g(H,U,f)=  0.164E+01 0.542E+01 0.587E-01 ort(H,U,f) = 0.180E+01-0.137E+01-0.294E+00
CGA:   9    -0.651387616552E+02   -0.43556E+00   -0.42604E+00    96   0.711E+01 0.142E+00
 gam= 0.928 trial= 0.229  step= 0.090 mean= 0.229
 gam= 0.574 g(H,U,f)=  0.112E+01 0.148E+01 0.148E+01 ort(H,U,f) = 0.102E+01-0.528E+00-0.128E+01
CGA:  10    -0.654203879920E+02   -0.28163E+00   -0.32657E+00    96   0.409E+01-0.795E+00
 gam= 0.574 trial= 0.222  step= 0.112 mean= 0.222
 gam= 0.598 g(H,U,f)=  0.707E+00 0.122E+01 0.516E+00 ort(H,U,f) = 0.495E+00-0.850E+00 0.213E+00
CGA:  11    -0.656093458964E+02   -0.18896E+00   -0.20341E+00    96   0.244E+01-0.142E+00
 gam= 0.598 trial= 0.217  step= 0.102 mean= 0.217
 gam= 0.499 g(H,U,f)=  0.451E+00 0.567E+00 0.200E+00 ort(H,U,f) = 0.379E+00 0.616E-01-0.418E+00
CGA:  12    -0.657331649313E+02   -0.12382E+00   -0.12075E+00    96   0.122E+01 0.231E-01
 gam= 0.499 trial= 0.211  step= 0.137 mean= 0.211
 gam= 0.852 g(H,U,f)=  0.273E+00 0.526E+00 0.239E+00 ort(H,U,f) = 0.266E+00-0.326E+00 0.589E-01
CGA:  13    -0.658180254962E+02   -0.84861E-01   -0.84284E-01    96   0.104E+01-0.495E-03
 gam= 0.852 trial= 0.207  step= 0.096 mean= 0.207
 gam= 0.382 g(H,U,f)=  0.175E+00 0.148E+00 0.739E-01 ort(H,U,f) = 0.207E+00-0.201E-01-0.163E+00
CGA:  14    -0.658700010114E+02   -0.51976E-01   -0.49774E-01    96   0.397E+00 0.236E-01
 gam= 0.382 trial= 0.202  step= 0.150 mean= 0.202
 gam= 1.189 g(H,U,f)=  0.114E+00 0.218E+00 0.140E+00 ort(H,U,f) = 0.130E+00-0.131E+00 0.472E-02
CGA:  15    -0.658998565229E+02   -0.29856E-01   -0.30426E-01    96   0.472E+00 0.336E-02
 gam= 1.189 trial= 0.199  step= 0.110 mean= 0.199
 gam= 0.555 g(H,U,f)=  0.731E-01 0.157E+00 0.317E-01 ort(H,U,f) = 0.105E+00-0.333E-01-0.684E-01
CGA:  16    -0.659266725099E+02   -0.26816E-01   -0.26211E-01    96   0.262E+00 0.371E-02
 gam= 0.555 trial= 0.195  step= 0.137 mean= 0.195
 gam= 0.785 g(H,U,f)=  0.481E-01 0.545E-01 0.103E+00 ort(H,U,f) = 0.462E-01-0.435E-01-0.311E-02
CGA:  17    -0.659449630483E+02   -0.18291E-01   -0.18133E-01    96   0.206E+00-0.462E-03
 gam= 0.785 trial= 0.192  step= 0.100 mean= 0.192
 gam= 0.387 g(H,U,f)=  0.351E-01 0.412E-01 0.340E-02 ort(H,U,f) = 0.306E-01-0.166E-01-0.178E-01
CGA:  18    -0.659547640485E+02   -0.98010E-02   -0.10251E-01    96   0.796E-01-0.386E-02
 gam= 0.387 trial= 0.187  step= 0.129 mean= 0.187
 gam= 1.018 g(H,U,f)=  0.266E-01 0.165E-01 0.380E-01 ort(H,U,f) = 0.287E-01-0.161E-01-0.124E-01
CGA:  19    -0.659597818862E+02   -0.50178E-02   -0.50349E-02    96   0.811E-01 0.149E-03
 gam= 1.018 trial= 0.184  step= 0.160 mean= 0.184
 gam= 0.718 g(H,U,f)=  0.154E-01 0.420E-01 0.796E-03 ort(H,U,f) = 0.219E-01-0.182E-01-0.362E-02
CGA:  20    -0.659662761921E+02   -0.64943E-02   -0.64940E-02    96   0.583E-01 0.113E-03
 gam= 0.718 trial= 0.183  step= 0.122 mean= 0.183
 gam= 0.685 g(H,U,f)=  0.968E-02 0.728E-02 0.229E-01 ort(H,U,f) = 0.126E-01-0.322E-02-0.928E-02
CGA:  21    -0.659698388470E+02   -0.35627E-02   -0.35577E-02    96   0.399E-01 0.801E-04
 gam= 0.685 trial= 0.180  step= 0.114 mean= 0.180
 gam= 0.407 g(H,U,f)=  0.672E-02 0.950E-02 0.131E-04 ort(H,U,f) = 0.693E-02-0.727E-02 0.365E-03
CGA:  22    -0.659721147965E+02   -0.22759E-02   -0.22816E-02    96   0.162E-01 0.225E-04
 gam= 0.407 trial= 0.177  step= 0.126 mean= 0.177
 gam= 0.986 g(H,U,f)=  0.530E-02 0.359E-02 0.710E-02 ort(H,U,f) = 0.625E-02-0.212E-02-0.415E-02
CGA:  23    -0.659731398881E+02   -0.10251E-02   -0.10246E-02    96   0.160E-01-0.142E-04
 gam= 0.986 trial= 0.174  step= 0.174 mean= 0.174
 gam= 0.751 g(H,U,f)=  0.293E-02 0.902E-02 0.621E-04 ort(H,U,f) = 0.458E-02-0.494E-02 0.266E-03
CGA:  24    -0.659745326371E+02   -0.13927E-02   -0.13928E-02    96   0.120E-01-0.993E-04
 gam= 0.751 trial= 0.174  step= 0.109 mean= 0.174
 gam= 0.606 g(H,U,f)=  0.197E-02 0.203E-02 0.327E-02 ort(H,U,f) = 0.284E-02-0.994E-03-0.189E-02
CGA:  25    -0.659751833605E+02   -0.65072E-03   -0.64923E-03    96   0.727E-02-0.492E-04
 gam= 0.606 trial= 0.171  step= 0.137 mean= 0.171
 gam= 0.589 g(H,U,f)=  0.131E-02 0.296E-02 0.757E-05 ort(H,U,f) = 0.149E-02-0.162E-02 0.104E-03
CGA:  26    -0.659756781314E+02   -0.49477E-03   -0.49458E-03    96   0.428E-02-0.311E-04
 gam= 0.589 trial= 0.169  step= 0.120 mean= 0.169
 gam= 0.779 g(H,U,f)=  0.941E-03 0.447E-03 0.195E-02 ort(H,U,f) = 0.122E-02-0.127E-03-0.110E-02
CGA:  27    -0.659759334623E+02   -0.25533E-03   -0.25515E-03    96   0.334E-02-0.121E-04
 gam= 0.779 trial= 0.167  step= 0.156 mean= 0.167
 gam= 0.618 g(H,U,f)=  0.615E-03 0.138E-02 0.716E-04 ort(H,U,f) = 0.745E-03-0.959E-03 0.209E-03
CGA:  28    -0.659761924518E+02   -0.25899E-03   -0.25897E-03    96   0.206E-02-0.592E-05
 gam= 0.618 trial= 0.166  step= 0.109 mean= 0.166
 gam= 0.701 g(H,U,f)=  0.495E-03 0.244E-03 0.707E-03 ort(H,U,f) = 0.641E-03-0.121E-04-0.629E-03
CGA:  29    -0.659763044988E+02   -0.11205E-03   -0.11204E-03    96   0.145E-02 0.627E-07
 gam= 0.701 trial= 0.163  step= 0.190 mean= 0.163
 gam= 1.009 g(H,U,f)=  0.300E-03 0.109E-02 0.685E-04 ort(H,U,f) = 0.381E-03-0.455E-03 0.832E-04
CGA:  30    -0.659764420066E+02   -0.13751E-03   -0.13739E-03    96   0.146E-02 0.923E-05
 gam= 1.009 trial= 0.165  step= 0.110 mean= 0.165
 gam= 0.550 g(H,U,f)=  0.213E-03 0.207E-03 0.382E-03 ort(H,U,f) = 0.252E-03 0.120E-03-0.361E-03
CGA:  31    -0.659765226573E+02   -0.80651E-04   -0.80909E-04    96   0.802E-03 0.105E-04
 gam= 0.550 trial= 0.162  step= 0.135 mean= 0.162
 final diagonalization
FORCES:
     0.1705913    -0.0144196    -0.1044947
    -0.0651270     0.6501651     0.6680331
     0.9125231    -1.0616452    -0.0256199
    -0.3101543    -0.3887355     0.5396660
    -0.0941217    -0.5555761    -0.4492164
     0.0796364     0.7622468     0.1555552
    -0.0823143    -1.6337778     0.5839340
     0.4893115     0.1954820     0.0252032
    -0.0308742     1.4673868     0.2792312
    -0.6313750    -1.6817812    -0.3801197
    -0.8958211    -0.7902725    -0.6253037
    -0.0044173     0.8320818    -0.4950710
     0.1977987     1.7338727    -0.1046221
     0.0868298     0.6749387    -0.1634804
     0.8313872     1.5816291     0.2540189
    -0.1548638     0.4651803     0.0201640
    -0.4475056    -0.6558748    -0.0301679
     0.8485363     0.9710171     0.1397802
    -0.5855165     0.5908043    -0.4891507
     0.4341490    -0.9741422    -0.6302552
    -0.9875750     1.1676072     0.0959928
    -0.2527063    -1.7523537    -0.1225600
    -0.0891573     0.7328204    -0.2919229
    -0.0565745    -1.5316150    -0.0015265
    -0.1332381     1.3400047     0.1683429
     0.3870135     1.2332985     0.0724411
     0.7702076    -1.6535591     0.4820936
    -0.3866424    -1.7047828     0.4290548
   3 F= -.65976523E+02 E0= -.65951403E+02  d E =-.659765E+02
POSITIONS: reading from stdin
Inputting positions...
New scaled positions
     0.6506767     0.3182355     0.2557282
     0.6441338     0.4802468     0.5967145
     0.6024551     0.1703589     0.9483095
     0.0476874     0.3014479     0.2707913
     0.5393349     0.1170646     0.5469580
     0.3630794     0.3762304     0.7544316
     0.3059595     0.0540509     0.1751735
     0.7122945     0.8266198     0.5405465
     0.0828184     0.5290685     0.5863875
     0.3207477     0.9697140     0.7966673
     0.0780525     0.2228904     0.9023884
     0.8326148     0.7102636     0.1478918
     0.3518048     0.4585368     0.0840433
     0.3536640     0.3899125     0.4147693
     0.1725461     0.1958087     0.5690772
     0.3765655     0.7853780     0.0379727
     0.0620634     0.8172933     0.6622084
     0.3531851     0.9189261     0.4337096
     0.9709694     0.9649507     0.3265616
     0.4110751     0.6684271     0.6827606
     0.8243384     0.1251697     0.7151055
     0.1150826     0.5465178     0.9048355
     0.6671383     0.8804880     0.8791899
     0.6200426     0.5012822     0.9296479
     0.6177867     0.9921579     0.2337598
     0.0627652     0.9344837     0.0069350
     0.5429274     0.6057374     0.3194667
     0.1505440     0.6108792     0.2766837
Old scaled positions
     0.6475072     0.3193033     0.2580447
     0.6464446     0.4661210     0.5843004
     0.5828844     0.1885096     0.9483686
     0.0539511     0.3097559     0.2599891
     0.5406693     0.1310112     0.5555947
     0.3627960     0.3588958     0.7530904
     0.3080513     0.0933382     0.1585468
     0.7035744     0.8223933     0.5404955
     0.0834440     0.4974469     0.5784650
     0.3352409     0.0085013     0.8052132
     0.0966533     0.2376074     0.9162420
     0.8312062     0.6929224     0.1575737
     0.3493348     0.4204759     0.0878307
     0.3526372     0.3774393     0.4162828
     0.1518776     0.1565802     0.5648405
     0.3796813     0.7723644     0.0393425
     0.0710326     0.8336565     0.6607654
     0.3312580     0.8940101     0.4332501
     0.9863464     0.9529785     0.3411460
     0.3998169     0.6892274     0.6960817
     0.8474546     0.0999891     0.7114734
     0.1212155     0.5878962     0.9076487
     0.6683884     0.8657012     0.8851569
     0.6187290     0.5335998     0.9292287
     0.6194127     0.9658727     0.2297863
     0.0568395     0.9087136     0.0027903
     0.5253334     0.6406230     0.3086126
     0.1605726     0.6472063     0.2685541
POSITIONS: read from stdin
LATTICE: reading from stdin
New   direct lattice vectors                   reciprocal lattice vectors
       9.7649645    0.0000000    0.0000000       0.1024069    0.0000000    0.0000000
       0.0000000    9.7649645    0.0000000       0.0000000    0.1024069    0.0000000
       0.0000000    0.0000000    9.7649645       0.0000000    0.0000000    0.1024069


Old   direct lattice vectors                   reciprocal lattice vectors
       9.7649645    0.0000000    0.0000000       0.1024069    0.0000000    0.0000000
       0.0000000    9.7649645    0.0000000       0.0000000    0.1024069    0.0000000
       0.0000000    0.0000000    9.7649645       0.0000000    0.0000000    0.1024069


LATTICE: read from stdin
 bond charge predicted
 wavefunctions rotated
       N       E                     dE             d eps       ncg     rms          ort
 gam= 0.000 g(H,U,f)=  0.337E+03 0.312E+02 0.286E+02 ort(H,U,f) = 0.000E+00 0.000E+00 0.000E+00
SDA:   1     0.351954761207E+02    0.10117E+03    0.00000E+00    96   0.397E+03 0.000E+00
 gam= 0.000 trial= 0.161  step= 0.313 mean= 0.161
 gam= 0.252 g(H,U,f)=  0.774E+02 0.196E+02 0.312E+01 ort(H,U,f) = 0.863E+02-0.117E+02 0.142E+01
CGA:   2    -0.338011700054E+02   -0.68997E+02   -0.62210E+02    96   0.100E+03 0.760E+02
 gam= 0.252 trial= 0.168  step= 0.314 mean= 0.168
 gam= 0.838 g(H,U,f)=  0.291E+02 0.516E+02 0.324E+01 ort(H,U,f) = 0.270E+02-0.436E+01 0.140E+01
CGA:   3    -0.544467358291E+02   -0.20646E+02   -0.18738E+02    96   0.839E+02 0.240E+02
 gam= 0.838 trial= 0.175  step= 0.113 mean= 0.175
 gam= 1.182 g(H,U,f)=  0.250E+02 0.532E+02 0.211E+02 ort(H,U,f) = 0.207E+02-0.160E+02-0.626E+01
CGA:   4    -0.580940646930E+02   -0.36473E+01   -0.58652E+01    96   0.992E+02-0.156E+01
 gam= 1.182 trial= 0.172  step= 0.096 mean= 0.172
 gam= 0.551 g(H,U,f)=  0.208E+02 0.231E+02 0.108E+02 ort(H,U,f) = 0.978E+01-0.132E+02-0.925E+01
CGA:   5    -0.618541639591E+02   -0.37601E+01   -0.46645E+01    96   0.547E+02-0.127E+02
 gam= 0.551 trial= 0.168  step= 0.135 mean= 0.168
 gam= 0.473 g(H,U,f)=  0.117E+02 0.585E+01 0.834E+01 ort(H,U,f) = 0.372E+01-0.198E+01-0.505E+01
CGA:   6    -0.651048715807E+02   -0.32507E+01   -0.32153E+01    96   0.259E+02-0.331E+01
 gam= 0.473 trial= 0.167  step= 0.171 mean= 0.167
 gam= 0.551 g(H,U,f)=  0.604E+01 0.738E+01 0.827E+00 ort(H,U,f) = 0.271E+01-0.208E+01-0.170E+01
CGA:   7    -0.671777692836E+02   -0.20729E+01   -0.20769E+01    96   0.143E+02-0.107E+01
 gam= 0.551 trial= 0.167  step= 0.108 mean= 0.167
 gam= 0.571 g(H,U,f)=  0.410E+01 0.160E+01 0.244E+01 ort(H,U,f) = 0.395E+01-0.130E+01-0.240E+01
CGA:   8    -0.680132852182E+02   -0.83552E+00   -0.73867E+00    96   0.814E+01 0.248E+00
 gam= 0.571 trial= 0.164  step= 0.203 mean= 0.164
 gam= 1.862 g(H,U,f)=  0.225E+01 0.967E+01 0.325E+01 ort(H,U,f) = 0.194E+01-0.394E+01 0.131E+01
CGA:   9    -0.688302277493E+02   -0.81694E+00   -0.83913E+00    96   0.152E+02-0.679E+00
 gam= 1.862 trial= 0.166  step= 0.042 mean= 0.166
 gam= 0.370 g(H,U,f)=  0.175E+01 0.358E+01 0.278E+00 ort(H,U,f) = 0.216E+01 0.212E-01-0.160E+01
CGA:  10    -0.691533092523E+02   -0.32308E+00   -0.29356E+00    96   0.561E+01 0.583E+00
 gam= 0.370 trial= 0.160  step= 0.105 mean= 0.160
 gam= 1.211 g(H,U,f)=  0.133E+01 0.506E+01 0.398E+00 ort(H,U,f) = 0.934E+00-0.322E+00-0.415E+00
CGA:  11    -0.693985712860E+02   -0.24526E+00   -0.30708E+00    96   0.679E+01 0.198E+00
 gam= 1.211 trial= 0.157  step= 0.068 mean= 0.157
 gam= 0.319 g(H,U,f)=  0.904E+00 0.112E+01 0.141E+00 ort(H,U,f) = 0.681E+00-0.253E+00-0.263E+00
CGA:  12    -0.696573137829E+02   -0.25874E+00   -0.24059E+00    96   0.217E+01 0.164E+00
 gam= 0.319 trial= 0.153  step= 0.121 mean= 0.153
 gam= 0.636 g(H,U,f)=  0.598E+00 0.233E+00 0.548E+00 ort(H,U,f) = 0.550E+00 0.349E-01-0.549E+00
CGA:  13    -0.697892717783E+02   -0.13196E+00   -0.13434E+00    96   0.138E+01 0.356E-01
 gam= 0.636 trial= 0.151  step= 0.131 mean= 0.151
 gam= 1.350 g(H,U,f)=  0.377E+00 0.132E+01 0.165E+00 ort(H,U,f) = 0.491E+00-0.507E+00 0.354E-01
CGA:  14    -0.698802385007E+02   -0.90967E-01   -0.91569E-01    96   0.186E+01 0.194E-01
 gam= 1.350 trial= 0.150  step= 0.116 mean= 0.150
 gam= 0.349 g(H,U,f)=  0.202E+00 0.424E+00 0.236E-01 ort(H,U,f) = 0.785E-01-0.518E-01-0.305E-01
CGA:  15    -0.699899405593E+02   -0.10970E+00   -0.10922E+00    96   0.650E+00-0.383E-02
 gam= 0.349 trial= 0.148  step= 0.092 mean= 0.148
 gam= 0.438 g(H,U,f)=  0.151E+00 0.133E+00 0.894E-03 ort(H,U,f) = 0.958E-01-0.102E+00 0.192E-02
CGA:  16    -0.700183409012E+02   -0.28400E-01   -0.29784E-01    96   0.285E+00-0.447E-02
 gam= 0.438 trial= 0.146  step= 0.203 mean= 0.146
 gam= 1.205 g(H,U,f)=  0.885E-01 0.235E+00 0.199E-01 ort(H,U,f) = 0.844E-01-0.552E-01-0.135E-01
CGA:  17    -0.700477226893E+02   -0.29382E-01   -0.28786E-01    96   0.344E+00 0.157E-01
 gam= 1.205 trial= 0.148  step= 0.130 mean= 0.148
 gam= 0.405 g(H,U,f)=  0.519E-01 0.791E-01 0.818E-02 ort(H,U,f) = 0.560E-01-0.688E-01 0.424E-02
CGA:  18    -0.700714532012E+02   -0.23731E-01   -0.23499E-01    96   0.139E+00-0.857E-02
 gam= 0.405 trial= 0.147  step= 0.167 mean= 0.147
 gam= 0.774 g(H,U,f)=  0.351E-01 0.285E-01 0.440E-01 ort(H,U,f) = 0.284E-01-0.918E-02-0.233E-01
CGA:  19    -0.700827153836E+02   -0.11262E-01   -0.11326E-01    96   0.108E+00-0.403E-02
 gam= 0.774 trial= 0.148  step= 0.168 mean= 0.148
 gam= 0.523 g(H,U,f)=  0.226E-01 0.294E-01 0.432E-02 ort(H,U,f) = 0.192E-01-0.285E-01 0.793E-02
CGA:  20    -0.700914817096E+02   -0.87663E-02   -0.87897E-02    96   0.563E-01-0.138E-02
 gam= 0.523 trial= 0.149  step= 0.131 mean= 0.149
 gam= 0.903 g(H,U,f)=  0.167E-01 0.726E-02 0.269E-01 ort(H,U,f) = 0.197E-01 0.112E-02-0.205E-01
CGA:  21    -0.700951035650E+02   -0.36219E-02   -0.36289E-02    96   0.508E-01 0.357E-03
 gam= 0.903 trial= 0.148  step= 0.202 mean= 0.148
 gam= 0.579 g(H,U,f)=  0.935E-02 0.118E-01 0.828E-02 ort(H,U,f) = 0.955E-02-0.109E-01 0.180E-02
CGA:  22    -0.701002766961E+02   -0.51731E-02   -0.51590E-02    96   0.294E-01 0.422E-03
 gam= 0.579 trial= 0.151  step= 0.130 mean= 0.151
 gam= 0.571 g(H,U,f)=  0.672E-02 0.306E-02 0.701E-02 ort(H,U,f) = 0.685E-02-0.140E-03-0.694E-02
CGA:  23    -0.701022056988E+02   -0.19290E-02   -0.19239E-02    96   0.168E-01-0.222E-03
 gam= 0.571 trial= 0.150  step= 0.167 mean= 0.150
 gam= 0.875 g(H,U,f)=  0.454E-02 0.732E-02 0.284E-02 ort(H,U,f) = 0.501E-02-0.349E-02-0.165E-02
CGA:  24    -0.701035974411E+02   -0.13917E-02   -0.13928E-02    96   0.147E-01-0.122E-03
 gam= 0.875 trial= 0.151  step= 0.160 mean= 0.151
 gam= 0.575 g(H,U,f)=  0.274E-02 0.218E-02 0.353E-02 ort(H,U,f) = 0.318E-02-0.127E-02-0.197E-02
CGA:  25    -0.701047641117E+02   -0.11667E-02   -0.11670E-02    96   0.845E-02-0.652E-04
 gam= 0.575 trial= 0.151  step= 0.147 mean= 0.151
 gam= 0.790 g(H,U,f)=  0.185E-02 0.471E-02 0.123E-03 ort(H,U,f) = 0.195E-02-0.150E-02-0.436E-03
CGA:  26    -0.701053845222E+02   -0.62041E-03   -0.62044E-03    96   0.667E-02 0.161E-04
 gam= 0.790 trial= 0.151  step= 0.134 mean= 0.151
 gam= 0.407 g(H,U,f)=  0.139E-02 0.684E-03 0.647E-03 ort(H,U,f) = 0.140E-02-0.822E-03-0.588E-03
CGA:  27    -0.701058332612E+02   -0.44874E-03   -0.44841E-03    96   0.272E-02-0.594E-05
 gam= 0.407 trial= 0.150  step= 0.238 mean= 0.150
 gam= 1.540 g(H,U,f)=  0.786E-03 0.335E-02 0.491E-04 ort(H,U,f) = 0.859E-03-0.813E-03-0.898E-04
CGA:  28    -0.701061546628E+02   -0.32140E-03   -0.32339E-03    96   0.419E-02-0.435E-04
 gam= 1.540 trial= 0.155  step= 0.120 mean= 0.155
 gam= 0.351 g(H,U,f)=  0.488E-03 0.410E-03 0.573E-03 ort(H,U,f) = 0.415E-03 0.298E-04-0.466E-03
CGA:  29    -0.701064016813E+02   -0.24702E-03   -0.24652E-03    96   0.147E-02-0.206E-04
 gam= 0.351 trial= 0.153  step= 0.139 mean= 0.153
 gam= 0.682 g(H,U,f)=  0.381E-03 0.601E-03 0.202E-04 ort(H,U,f) = 0.305E-03-0.318E-03 0.383E-04
CGA:  30    -0.701065034110E+02   -0.10173E-03   -0.10192E-03    96   0.100E-02 0.247E-04
 gam= 0.682 trial= 0.152  step= 0.164 mean= 0.152
 gam= 0.906 g(H,U,f)=  0.272E-03 0.175E-03 0.461E-03 ort(H,U,f) = 0.319E-03-0.299E-04-0.253E-03
CGA:  31    -0.701065872040E+02   -0.83793E-04   -0.83561E-04    96   0.908E-03 0.357E-04
 gam= 0.906 trial= 0.153  step= 0.144 mean= 0.153
 final diagonalization
FORCES:
     0.1718828     0.0172748    -0.0838293
     0.0936446     0.4440615     0.6242062
     0.7278232    -1.0629862    -0.0372109
    -0.2521053    -0.3310054     0.4381247
     0.0244177    -0.2258682    -0.3455383
     0.0927013     0.4866278     0.3009873
    -0.1724284    -1.0127108     0.1691925
     0.5087318     0.1827299     0.0498884
     0.0068896     0.9803653     0.0723340
    -0.5225723    -1.2450069    -0.3347074
    -0.7496679    -0.7470874    -0.5029059
     0.0138241     0.7194599    -0.4555688
     0.2224940     1.4415008     0.0063677
     0.1117422     0.7125918    -0.2430449
     0.5645042     1.0941293     0.2899718
    -0.0920507     0.1593094     0.0684358
    -0.4617411    -0.2848182    -0.0409699
     0.4722454     0.3834839     0.3960097
    -0.4080946     0.5142132    -0.2528495
     0.2368336    -0.6588434    -0.5381939
    -0.7443227     0.9714702    -0.0358796
    -0.2251374    -1.3292104    -0.0834548
    -0.0942107     0.6343206    -0.2532973
    -0.1658185    -1.3031680    -0.0037227
    -0.1493998     1.2577821     0.0986930
     0.4092614     1.0900019    -0.0849617
     0.6439710    -1.4133252     0.3670271
    -0.2634173    -1.4752922     0.4148966
   4 F= -.70106587E+02 E0= -.70076676E+02  d E =-.701066E+02
POSITIONS: reading from stdin
Attemping to close VASP cleanly
Inputting positions...
New scaled positions
     0.6506767     0.3182355     0.2557282
     0.6441338     0.4802468     0.5967145
     0.6024551     0.1703589     0.9483095
     0.0476874     0.3014479     0.2707913
     0.5393349     0.1170646     0.5469580
     0.3630794     0.3762304     0.7544316
     0.3059595     0.0540509     0.1751735
     0.7122945     0.8266198     0.5405465
     0.0828184     0.5290685     0.5863875
     0.3207477     0.9697140     0.7966673
     0.0780525     0.2228904     0.9023884
     0.8326148     0.7102636     0.1478918
     0.3518048     0.4585368     0.0840433
     0.3536640     0.3899125     0.4147693
     0.1725461     0.1958087     0.5690772
     0.3765655     0.7853780     0.0379727
     0.0620634     0.8172933     0.6622084
     0.3531851     0.9189261     0.4337096
     0.9709694     0.9649507     0.3265616
     0.4110751     0.6684271     0.6827606
     0.8243384     0.1251697     0.7151055
     0.1150826     0.5465178     0.9048355
     0.6671383     0.8804880     0.8791899
     0.6200426     0.5012822     0.9296479
     0.6177867     0.9921579     0.2337598
     0.0627652     0.9344837     0.0069350
     0.5429274     0.6057374     0.3194667
     0.1505440     0.6108792     0.2766837
Old scaled positions
     0.6475072     0.3193033     0.2580447
     0.6464446     0.4661210     0.5843004
     0.5828844     0.1885096     0.9483686
     0.0539511     0.3097559     0.2599891
     0.5406693     0.1310112     0.5555947
     0.3627960     0.3588958     0.7530904
     0.3080513     0.0933382     0.1585468
     0.7035744     0.8223933     0.5404955
     0.0834440     0.4974469     0.5784650
     0.3352409     0.0085013     0.8052132
     0.0966533     0.2376074     0.9162420
     0.8312062     0.6929224     0.1575737
     0.3493348     0.4204759     0.0878307
     0.3526372     0.3774393     0.4162828
     0.1518776     0.1565802     0.5648405
     0.3796813     0.7723644     0.0393425
     0.0710326     0.8336565     0.6607654
     0.3312580     0.8940101     0.4332501
     0.9863464     0.9529785     0.3411460
     0.3998169     0.6892274     0.6960817
     0.8474546     0.0999891     0.7114734
     0.1212155     0.5878962     0.9076487
     0.6683884     0.8657012     0.8851569
     0.6187290     0.5335998     0.9292287
     0.6194127     0.9658727     0.2297863
     0.0568395     0.9087136     0.0027903
     0.5253334     0.6406230     0.3086126
     0.1605726     0.6472063     0.2685541
POSITIONS: read from stdin
LATTICE: reading from stdin
New   direct lattice vectors                   reciprocal lattice vectors
       9.7649645    0.0000000    0.0000000       0.1024069    0.0000000    0.0000000
       0.0000000    9.7649645    0.0000000       0.0000000    0.1024069    0.0000000
       0.0000000    0.0000000    9.7649645       0.0000000    0.0000000    0.1024069


Old   direct lattice vectors                   reciprocal lattice vectors
       9.7649645    0.0000000    0.0000000       0.1024069    0.0000000    0.0000000
       0.0000000    9.7649645    0.0000000       0.0000000    0.1024069    0.0000000
       0.0000000    0.0000000    9.7649645       0.0000000    0.0000000    0.1024069


LATTICE: read from stdin
 bond charge predicted
 wavefunctions rotated
       N       E                     dE             d eps       ncg     rms          ort
 gam= 0.000 g(H,U,f)=  0.146E-01 0.874E-01 0.121E-01 ort(H,U,f) = 0.000E+00 0.000E+00 0.000E+00
SDA:   1    -0.700998896981E+02    0.66137E-02    0.00000E+00    96   0.114E+00 0.000E+00
 gam= 0.000 trial= 0.152  step= 0.109 mean= 0.152
 hard stop encountered!  aborting job ...
FORCES:
     0.1573404     0.0402756    -0.0423588
     0.0726931     0.4602541     0.6461736
     0.7149156    -1.0625391    -0.0913153
    -0.1917351    -0.3149055     0.4602458
    -0.0076127    -0.2014901    -0.3179255
     0.0848559     0.5135891     0.2504566
    -0.2057107    -1.0116112     0.1828116
     0.5051557     0.1370353     0.0628620
     0.0471225     0.9538011     0.0707909
    -0.5385238    -1.2475734    -0.3603823
    -0.7215167    -0.7347560    -0.5263616
     0.0276095     0.7105053    -0.4471363
     0.1778966     1.4532144    -0.0054981
     0.0785415     0.7361694    -0.1830154
     0.5925820     1.1278604     0.3017767
    -0.0807806     0.1484861     0.0460277
    -0.4620638    -0.3015856    -0.0487428
     0.5040547     0.4034265     0.4272226
    -0.4308669     0.5276001    -0.2365595
     0.2699343    -0.7233214    -0.5578712
    -0.7675701     0.9992587    -0.0505830
    -0.2072709    -1.3708353    -0.1152326
    -0.0956080     0.6318219    -0.2609956
    -0.1687680    -1.3111401    -0.0170330
    -0.1492697     1.2575806     0.1024257
     0.4105802     1.0923292    -0.0883252
     0.6439951    -1.4252647     0.3792713
    -0.2599801    -1.4881853     0.4192716
   5 F= -.70099890E+02 E0= -.70069526E+02  d E =-.700999E+02
POSITIONS: reading from stdin
Inputting positions...
New scaled positions
     0.6506767     0.3182355     0.2557282
     0.6441338     0.4802468     0.5967145
     0.6024551     0.1703589     0.9483095
     0.0476874     0.3014479     0.2707913
     0.5393349     0.1170646     0.5469580
     0.3630794     0.3762304     0.7544316
     0.3059595     0.0540509     0.1751735
     0.7122945     0.8266198     0.5405465
     0.0828184     0.5290685     0.5863875
     0.3207477     0.9697140     0.7966673
     0.0780525     0.2228904     0.9023884
     0.8326148     0.7102636     0.1478918
     0.3518048     0.4585368     0.0840433
     0.3536640     0.3899125     0.4147693
     0.1725461     0.1958087     0.5690772
     0.3765655     0.7853780     0.0379727
     0.0620634     0.8172933     0.6622084
     0.3531851     0.9189261     0.4337096
     0.9709694     0.9649507     0.3265616
     0.4110751     0.6684271     0.6827606
     0.8243384     0.1251697     0.7151055
     0.1150826     0.5465178     0.9048355
     0.6671383     0.8804880     0.8791899
     0.6200426     0.5012822     0.9296479
     0.6177867     0.9921579     0.2337598
     0.0627652     0.9344837     0.0069350
     0.5429274     0.6057374     0.3194667
     0.1505440     0.6108792     0.2766837
Old scaled positions
     0.6475072     0.3193033     0.2580447
     0.6464446     0.4661210     0.5843004
     0.5828844     0.1885096     0.9483686
     0.0539511     0.3097559     0.2599891
     0.5406693     0.1310112     0.5555947
     0.3627960     0.3588958     0.7530904
     0.3080513     0.0933382     0.1585468
     0.7035744     0.8223933     0.5404955
     0.0834440     0.4974469     0.5784650
     0.3352409     0.0085013     0.8052132
     0.0966533     0.2376074     0.9162420
     0.8312062     0.6929224     0.1575737
     0.3493348     0.4204759     0.0878307
     0.3526372     0.3774393     0.4162828
     0.1518776     0.1565802     0.5648405
     0.3796813     0.7723644     0.0393425
     0.0710326     0.8336565     0.6607654
     0.3312580     0.8940101     0.4332501
     0.9863464     0.9529785     0.3411460
     0.3998169     0.6892274     0.6960817
     0.8474546     0.0999891     0.7114734
     0.1212155     0.5878962     0.9076487
     0.6683884     0.8657012     0.8851569
     0.6187290     0.5335998     0.9292287
     0.6194127     0.9658727     0.2297863
     0.0568395     0.9087136     0.0027903
     0.5253334     0.6406230     0.3086126
     0.1605726     0.6472063     0.2685541
POSITIONS: read from stdin
LATTICE: reading from stdin
New   direct lattice vectors                   reciprocal lattice vectors
       9.7649645    0.0000000    0.0000000       0.1024069    0.0000000    0.0000000
       0.0000000    9.7649645    0.0000000       0.0000000    0.1024069    0.0000000
       0.0000000    0.0000000    9.7649645       0.0000000    0.0000000    0.1024069


Old   direct lattice vectors                   reciprocal lattice vectors
       9.7649645    0.0000000    0.0000000       0.1024069    0.0000000    0.0000000
       0.0000000    9.7649645    0.0000000       0.0000000    0.1024069    0.0000000
       0.0000000    0.0000000    9.7649645       0.0000000    0.0000000    0.1024069


LATTICE: read from stdin
 writing wavefunctions
 augmentation electrons   16.4312180130073     
 soft         electrons   143.559006825551     
 total        electrons   159.990224838558     
 deleting file STOPCAR
VASP terminated normally
VASP exited with code 0.