unknown system                          
           1
     9.764965    0.000000    0.000000
     0.000000    9.764965    0.000000
     0.000000    0.000000    9.764965
   Cl   K    Na
    14     8     6
Direct configuration=     1
   0.64750718  0.31930332  0.25804466
   0.64644457  0.46612098  0.58430042
   0.58288438  0.18850957  0.94836858
   0.05395111  0.30975589  0.25998907
   0.54066931  0.13101115  0.55559470
   0.36279598  0.35889581  0.75309035
   0.30805131  0.09333823  0.15854684
   0.70357442  0.82239327  0.54049551
   0.08344400  0.49744693  0.57846499
   0.33524091  0.00850127  0.80521320
   0.09665325  0.23760745  0.91624200
   0.83120623  0.69292235  0.15757371
   0.34933479  0.42047588  0.08783068
   0.35263724  0.37743928  0.41628277
   0.15187764  0.15658025  0.56484048
   0.37968128  0.77236440  0.03934247
   0.07103259  0.83365647  0.66076543
   0.33125804  0.89401011  0.43325008
   0.98634640  0.95297852  0.34114597
   0.39981687  0.68922740  0.69608169
   0.84745459  0.09998908  0.71147340
   0.12121552  0.58789618  0.90764875
   0.66838841  0.86570119  0.88515692
   0.61872900  0.53359981  0.92922868
   0.61941271  0.96587273  0.22978634
   0.05683952  0.90871356  0.00279029
   0.52533340  0.64062300  0.30861263
   0.16057256  0.64720630  0.26855407
unknown system                          
           1
     9.764965    0.000000    0.000000
     0.000000    9.764965    0.000000
     0.000000    0.000000    9.764965
   Cl   K    Na
    14     8     6
Direct configuration=     2
   0.64750718  0.31930332  0.25804466
   0.64644457  0.46612098  0.58430042
   0.58288438  0.18850957  0.94836858
   0.05395111  0.30975589  0.25998907
   0.54066931  0.13101115  0.55559470
   0.36279598  0.35889581  0.75309035
   0.30805131  0.09333823  0.15854684
   0.70357442  0.82239327  0.54049551
   0.08344400  0.49744693  0.57846499
   0.33524091  0.00850127  0.80521320
   0.09665325  0.23760745  0.91624200
   0.83120623  0.69292235  0.15757371
   0.34933479  0.42047588  0.08783068
   0.35263724  0.37743928  0.41628277
   0.15187764  0.15658025  0.56484048
   0.37968128  0.77236440  0.03934247
   0.07103259  0.83365647  0.66076543
   0.33125804  0.89401011  0.43325008
   0.98634640  0.95297852  0.34114597
   0.39981687  0.68922740  0.69608169
   0.84745459  0.09998908  0.71147340
   0.12121552  0.58789618  0.90764875
   0.66838841  0.86570119  0.88515692
   0.61872900  0.53359981  0.92922868
   0.61941271  0.96587273  0.22978634
   0.05683952  0.90871356  0.00279029
   0.52533340  0.64062300  0.30861263
   0.16057256  0.64720630  0.26855407
unknown system                          
           1
     9.764965    0.000000    0.000000
     0.000000    9.764965    0.000000
     0.000000    0.000000    9.764965
   Cl   K    Na
    14     8     6
Direct configuration=     3
   0.64750718  0.31930332  0.25804466
   0.64644457  0.46612098  0.58430042
   0.58288438  0.18850957  0.94836858
   0.05395111  0.30975589  0.25998907
   0.54066931  0.13101115  0.55559470
   0.36279598  0.35889581  0.75309035
   0.30805131  0.09333823  0.15854684
   0.70357442  0.82239327  0.54049551
   0.08344400  0.49744693  0.57846499
   0.33524091  0.00850127  0.80521320
   0.09665325  0.23760745  0.91624200
   0.83120623  0.69292235  0.15757371
   0.34933479  0.42047588  0.08783068
   0.35263724  0.37743928  0.41628277
   0.15187764  0.15658025  0.56484048
   0.37968128  0.77236440  0.03934247
   0.07103259  0.83365647  0.66076543
   0.33125804  0.89401011  0.43325008
   0.98634640  0.95297852  0.34114597
   0.39981687  0.68922740  0.69608169
   0.84745459  0.09998908  0.71147340
   0.12121552  0.58789618  0.90764875
   0.66838841  0.86570119  0.88515692
   0.61872900  0.53359981  0.92922868
   0.61941271  0.96587273  0.22978634
   0.05683952  0.90871356  0.00279029
   0.52533340  0.64062300  0.30861263
   0.16057256  0.64720630  0.26855407
unknown system                          
           1
     9.764965    0.000000    0.000000
     0.000000    9.764965    0.000000
     0.000000    0.000000    9.764965
   Cl   K    Na
    14     8     6
Direct configuration=     4
   0.64750718  0.31930332  0.25804466
   0.64644457  0.46612098  0.58430042
   0.58288438  0.18850957  0.94836858
   0.05395111  0.30975589  0.25998907
   0.54066931  0.13101115  0.55559470
   0.36279598  0.35889581  0.75309035
   0.30805131  0.09333823  0.15854684
   0.70357442  0.82239327  0.54049551
   0.08344400  0.49744693  0.57846499
   0.33524091  0.00850127  0.80521320
   0.09665325  0.23760745  0.91624200
   0.83120623  0.69292235  0.15757371
   0.34933479  0.42047588  0.08783068
   0.35263724  0.37743928  0.41628277
   0.15187764  0.15658025  0.56484048
   0.37968128  0.77236440  0.03934247
   0.07103259  0.83365647  0.66076543
   0.33125804  0.89401011  0.43325008
   0.98634640  0.95297852  0.34114597
   0.39981687  0.68922740  0.69608169
   0.84745459  0.09998908  0.71147340
   0.12121552  0.58789618  0.90764875
   0.66838841  0.86570119  0.88515692
   0.61872900  0.53359981  0.92922868
   0.61941271  0.96587273  0.22978634
   0.05683952  0.90871356  0.00279029
   0.52533340  0.64062300  0.30861263
   0.16057256  0.64720630  0.26855407
unknown system                          
           1
     9.764965    0.000000    0.000000
     0.000000    9.764965    0.000000
     0.000000    0.000000    9.764965
   Cl   K    Na
    14     8     6
Direct configuration=     5
   0.64750718  0.31930332  0.25804466
   0.64644457  0.46612098  0.58430042
   0.58288438  0.18850957  0.94836858
   0.05395111  0.30975589  0.25998907
   0.54066931  0.13101115  0.55559470
   0.36279598  0.35889581  0.75309035
   0.30805131  0.09333823  0.15854684
   0.70357442  0.82239327  0.54049551
   0.08344400  0.49744693  0.57846499
   0.33524091  0.00850127  0.80521320
   0.09665325  0.23760745  0.91624200
   0.83120623  0.69292235  0.15757371
   0.34933479  0.42047588  0.08783068
   0.35263724  0.37743928  0.41628277
   0.15187764  0.15658025  0.56484048
   0.37968128  0.77236440  0.03934247
   0.07103259  0.83365647  0.66076543
   0.33125804  0.89401011  0.43325008
   0.98634640  0.95297852  0.34114597
   0.39981687  0.68922740  0.69608169
   0.84745459  0.09998908  0.71147340
   0.12121552  0.58789618  0.90764875
   0.66838841  0.86570119  0.88515692
   0.61872900  0.53359981  0.92922868
   0.61941271  0.96587273  0.22978634
   0.05683952  0.90871356  0.00279029
   0.52533340  0.64062300  0.30861263
   0.16057256  0.64720630  0.26855407
