       N       E                     dE             d eps       ncg     rms          ort
DAV:   1     0.133135775100E+04    0.13314E+04   -0.75731E+04    96   0.174E+03
DAV:   2     0.140342272659E+03   -0.11910E+04   -0.11691E+04    96   0.318E+02
DAV:   3    -0.701977862063E+02   -0.21054E+03   -0.20981E+03    96   0.105E+02
DAV:   4    -0.795198155581E+02   -0.93220E+01   -0.93153E+01    96   0.250E+01
DAV:   5    -0.797723470323E+02   -0.25253E+00   -0.25246E+00    96   0.458E+00
SDA:   6    -0.407250432349E+02    0.39047E+02   -0.25246E+00    96   0.929E+02 0.000E+00
CGA:   7    -0.581000665120E+02   -0.17375E+02   -0.17328E+02    96   0.953E+01-0.192E+01
CGA:   8    -0.610817279360E+02   -0.29817E+01   -0.72912E+00    96   0.110E+02 0.211E+02
CGA:   9    -0.630633108013E+02   -0.19816E+01   -0.20179E+01    96   0.225E+02 0.163E+01
CGA:  10    -0.642080246765E+02   -0.11447E+01   -0.10545E+01    96   0.238E+01 0.245E+01
CGA:  11    -0.644552854856E+02   -0.24726E+00   -0.25251E+00    96   0.513E+01-0.877E-02
CGA:  12    -0.646133182838E+02   -0.15803E+00   -0.90850E-01    96   0.388E+01 0.372E+01
CGA:  13    -0.647532033551E+02   -0.13989E+00   -0.28189E+00    96   0.221E+01-0.111E+01
CGA:  14    -0.650176757466E+02   -0.26447E+00   -0.25254E+00    96   0.127E+01-0.697E+00
CGA:  15    -0.651437652474E+02   -0.12609E+00   -0.12895E+00    96   0.763E+00 0.591E-01
CGA:  16    -0.651783724580E+02   -0.34607E-01   -0.21701E-01    96   0.240E+00 0.450E+00
CGA:  17    -0.651991922968E+02   -0.20820E-01   -0.20122E-01    96   0.219E+00 0.334E-02
CGA:  18    -0.652201734409E+02   -0.20981E-01   -0.20555E-01    96   0.149E+00 0.720E-03
CGA:  19    -0.652338179845E+02   -0.13645E-01   -0.13974E-01    96   0.102E+00-0.106E-02
CGA:  20    -0.652475532903E+02   -0.13735E-01   -0.13580E-01    96   0.375E-01-0.417E-02
CGA:  21    -0.652543286624E+02   -0.67754E-02   -0.67365E-02    96   0.236E-01 0.703E-03
CGA:  22    -0.652566995258E+02   -0.23709E-02   -0.23314E-02    96   0.126E-01 0.958E-04
CGA:  23    -0.652575918660E+02   -0.89234E-03   -0.89232E-03    96   0.581E-02 0.248E-04
CGA:  24    -0.652579965844E+02   -0.40472E-03   -0.41531E-03    96   0.407E-02-0.710E-04
CGA:  25    -0.652585174713E+02   -0.52089E-03   -0.52045E-03    96   0.653E-03-0.276E-04
CGA:  26    -0.652586139450E+02   -0.96474E-04   -0.96419E-04    96   0.123E-02 0.253E-05
CGA:  27    -0.652587167332E+02   -0.10279E-03   -0.10231E-03    96   0.757E-03-0.318E-05
CGA:  28    -0.652587778549E+02   -0.61122E-04   -0.61027E-04    96   0.325E-03 0.820E-07
   1 F= -.65258778E+02 E0= -.65231451E+02  d E =-.652588E+02
       N       E                     dE             d eps       ncg     rms          ort
SDA:   1    -0.634225078746E+02    0.18362E+01    0.00000E+00    96   0.844E+01 0.000E+00
CGA:   2    -0.651799447738E+02   -0.17574E+01   -0.17537E+01    96   0.418E+01 0.331E-01
CGA:   3    -0.653681049904E+02   -0.18816E+00   -0.20685E+00    96   0.231E+01-0.403E+00
CGA:   4    -0.656799354981E+02   -0.31183E+00   -0.30918E+00    96   0.971E+00 0.984E-01
CGA:   5    -0.657604604150E+02   -0.80525E-01   -0.75114E-01    96   0.584E+00 0.256E-01
CGA:   6    -0.658272742706E+02   -0.66814E-01   -0.67193E-01    96   0.180E+00 0.757E-02
CGA:   7    -0.658480058011E+02   -0.20732E-01   -0.20800E-01    96   0.194E+00 0.178E-02
CGA:   8    -0.658626632472E+02   -0.14657E-01   -0.14452E-01    96   0.633E-01 0.111E-02
CGA:   9    -0.658696598151E+02   -0.69966E-02   -0.69023E-02    96   0.557E-01-0.187E-02
CGA:  10    -0.658736414498E+02   -0.39816E-02   -0.39743E-02    96   0.199E-01 0.292E-04
CGA:  11    -0.658766430183E+02   -0.30016E-02   -0.30010E-02    96   0.855E-02 0.389E-05
CGA:  12    -0.658772439958E+02   -0.60098E-03   -0.59622E-03    96   0.552E-02-0.146E-05
CGA:  13    -0.658780425960E+02   -0.79860E-03   -0.79994E-03    96   0.353E-02-0.487E-04
CGA:  14    -0.658782439299E+02   -0.20133E-03   -0.20326E-03    96   0.144E-02-0.903E-06
CGA:  15    -0.658784764036E+02   -0.23247E-03   -0.23077E-03    96   0.626E-03 0.410E-04
CGA:  16    -0.658785419790E+02   -0.65575E-04   -0.65723E-04    96   0.698E-03 0.813E-05
   2 F= -.65878542E+02 E0= -.65851631E+02  d E =-.658785E+02
       N       E                     dE             d eps       ncg     rms          ort
SDA:   1     0.521187921399E+02    0.11800E+03    0.00000E+00    96   0.397E+03 0.000E+00
CGA:   2    -0.295244427939E+02   -0.81643E+02   -0.81241E+02    96   0.121E+03 0.940E+01
CGA:   3    -0.495908264908E+02   -0.20066E+02   -0.27132E+02    96   0.133E+03-0.161E+02
CGA:   4    -0.540422737725E+02   -0.44514E+01   -0.82859E+01    96   0.570E+02 0.183E+01
CGA:   5    -0.614998493988E+02   -0.74576E+01   -0.97326E+01    96   0.331E+02-0.267E+02
CGA:   6    -0.648799068339E+02   -0.33801E+01   -0.34174E+01    96   0.184E+02-0.469E+00
CGA:   7    -0.666096906232E+02   -0.17298E+01   -0.10394E+01    96   0.110E+02 0.131E+02
CGA:   8    -0.677302211189E+02   -0.11205E+01   -0.44867E+00    96   0.940E+01 0.150E+02
CGA:   9    -0.683407590724E+02   -0.61054E+00   -0.43457E+00    96   0.439E+01 0.190E+01
CGA:  10    -0.692558449947E+02   -0.91509E+00   -0.88599E+00    96   0.940E+01 0.464E+00
CGA:  11    -0.695402392027E+02   -0.28439E+00   -0.33876E+00    96   0.196E+01-0.184E+01
CGA:  12    -0.697686396177E+02   -0.22840E+00   -0.23831E+00    96   0.107E+01-0.242E+00
CGA:  13    -0.698227956157E+02   -0.54156E-01   -0.47513E-01    96   0.808E+00 0.889E-01
CGA:  14    -0.699116410316E+02   -0.88845E-01   -0.89359E-01    96   0.405E+00 0.148E-01
CGA:  15    -0.699373542962E+02   -0.25713E-01   -0.28713E-01    96   0.129E+00-0.591E-02
CGA:  16    -0.699454852561E+02   -0.81310E-02   -0.81718E-02    96   0.118E+00-0.429E-03
CGA:  17    -0.699567024919E+02   -0.11217E-01   -0.11088E-01    96   0.789E-01-0.257E-02
CGA:  18    -0.699639401998E+02   -0.72377E-02   -0.71371E-02    96   0.372E-01-0.183E-02
CGA:  19    -0.699673503709E+02   -0.34102E-02   -0.34173E-02    96   0.391E-01 0.969E-04
CGA:  20    -0.699697140848E+02   -0.23637E-02   -0.23907E-02    96   0.164E-01-0.151E-03
CGA:  21    -0.699712565006E+02   -0.15424E-02   -0.15449E-02    96   0.795E-02 0.815E-04
CGA:  22    -0.699721325845E+02   -0.87608E-03   -0.87729E-03    96   0.359E-02-0.110E-03
CGA:  23    -0.699726434098E+02   -0.51083E-03   -0.51046E-03    96   0.352E-02 0.136E-04
CGA:  24    -0.699729603694E+02   -0.31696E-03   -0.31769E-03    96   0.155E-02 0.487E-05
CGA:  25    -0.699730513569E+02   -0.90988E-04   -0.91609E-04    96   0.105E-02 0.917E-05
CGA:  26    -0.699731860969E+02   -0.13474E-03   -0.13478E-03    96   0.102E-02-0.175E-05
CGA:  27    -0.699732803946E+02   -0.94298E-04   -0.94286E-04    96   0.327E-03 0.520E-05
   3 F= -.69973280E+02 E0= -.69946416E+02  d E =-.699733E+02
       N       E                     dE             d eps       ncg     rms          ort
SDA:   1     0.494042888097E+02    0.11938E+03    0.00000E+00    96   0.395E+03 0.000E+00
CGA:   2    -0.322929620551E+02   -0.81697E+02   -0.80259E+02    96   0.115E+03 0.180E+02
CGA:   3    -0.523605949282E+02   -0.20068E+02   -0.32171E+02    96   0.744E+02-0.335E+02
CGA:   4    -0.649747623851E+02   -0.12614E+02   -0.11722E+02    96   0.470E+02-0.392E+02
CGA:   5    -0.668753374279E+02   -0.19006E+01   -0.34717E+01    96   0.472E+02-0.112E+02
CGA:   6    -0.710572451618E+02   -0.41819E+01   -0.48885E+01    96   0.382E+02-0.252E+02
CGA:   7    -0.712910230106E+02   -0.23378E+00   -0.20085E+01    96   0.379E+02-0.270E+02
CGA:   8    -0.716042660524E+02   -0.31324E+00   -0.18911E+01    96   0.350E+02-0.324E+02
CGA:   9    -0.720101414507E+02   -0.40588E+00   -0.16415E+01    96   0.295E+02-0.312E+02
CGA:  10    -0.724289447334E+02   -0.41880E+00   -0.12769E+01    96   0.198E+02-0.235E+02
CGA:  11    -0.728352702555E+02   -0.40633E+00   -0.72797E+00    96   0.729E+01-0.112E+02
CGA:  12    -0.730152970251E+02   -0.18003E+00   -0.21916E+00    96   0.121E+01-0.152E+01
CGA:  13    -0.731353633452E+02   -0.12007E+00   -0.11974E+00    96   0.178E+01 0.990E-02
CGA:  14    -0.732595600157E+02   -0.12420E+00   -0.12417E+00    96   0.913E+00-0.699E-02
CGA:  15    -0.733247445681E+02   -0.65185E-01   -0.64936E-01    96   0.666E+00-0.352E-02
CGA:  16    -0.733859379821E+02   -0.61193E-01   -0.61049E-01    96   0.628E+00-0.920E-02
CGA:  17    -0.734277870973E+02   -0.41849E-01   -0.41781E-01    96   0.259E+00-0.111E-02
CGA:  18    -0.734421582878E+02   -0.14371E-01   -0.14271E-01    96   0.117E+00 0.927E-03
CGA:  19    -0.734523748119E+02   -0.10217E-01   -0.10213E-01    96   0.122E+00-0.136E-03
CGA:  20    -0.734616411939E+02   -0.92664E-02   -0.92668E-02    96   0.674E-01 0.351E-03
CGA:  21    -0.734655622753E+02   -0.39211E-02   -0.39184E-02    96   0.333E-01-0.191E-04
CGA:  22    -0.734683529795E+02   -0.27907E-02   -0.27912E-02    96   0.322E-01 0.921E-04
CGA:  23    -0.734707614247E+02   -0.24084E-02   -0.24074E-02    96   0.180E-01-0.109E-03
CGA:  24    -0.734717936177E+02   -0.10322E-02   -0.10326E-02    96   0.822E-02 0.298E-04
CGA:  25    -0.734724509520E+02   -0.65733E-03   -0.65657E-03    96   0.776E-02-0.845E-04
CGA:  26    -0.734730501560E+02   -0.59920E-03   -0.59912E-03    96   0.475E-02 0.978E-05
CGA:  27    -0.734733432814E+02   -0.29313E-03   -0.29218E-03    96   0.276E-02-0.346E-04
CGA:  28    -0.734735782738E+02   -0.23499E-03   -0.23503E-03    96   0.255E-02 0.506E-04
CGA:  29    -0.734737590590E+02   -0.18079E-03   -0.18085E-03    96   0.142E-02 0.155E-05
CGA:  30    -0.734738483375E+02   -0.89279E-04   -0.90069E-04    96   0.850E-03 0.359E-04
   4 F= -.73473848E+02 E0= -.73445659E+02  d E =-.734738E+02
       N       E                     dE             d eps       ncg     rms          ort
SDA:   1    -0.734194633107E+02    0.54296E-01    0.00000E+00    96   0.251E+01 0.000E+00
   5 F= -.73419463E+02 E0= -.73391277E+02  d E =-.734195E+02
