Writing VASP input files
Starting VASP for initial step...
 running   32 mpi-ranks, with    1 threads/rank, on    1 nodes
 distrk:  each k-point on   32 cores,    1 groups
 distr:  one band on    1 cores,   32 groups
 vasp.6.4.0 14Feb23 (build Oct 13 2023 04:11:21) complex                        
  
 POSCAR found type information on POSCAR ClK Na
 POSCAR found :  3 types and      28 ions
 scaLAPACK will be used
 WARNING: PSMAXN for non-local potential too small
 LDA part: xc-table for Pade appr. of Perdew
 POSCAR, INCAR and KPOINTS ok, starting setup
 FFT: planning ... GRIDC
 FFT: planning ... GRID_SOFT
 FFT: planning ... GRID
 WAVECAR not read
 augmentation electrons   160.009346817547     
 soft         electrons  0.000000000000000E+000
 total        electrons   160.009346817547     
 augmentation electrons   297.632923852898     
 soft         electrons  0.000000000000000E+000
 total        electrons   297.632923852898     
 WARNING: random wavefunctions but no delay for mixing, default for NELMDL
 entering main loop
       N       E                     dE             d eps       ncg     rms          ort
DAV:   1     0.133135775100E+04    0.13314E+04   -0.75731E+04    96   0.174E+03
DAV:   2     0.140342272659E+03   -0.11910E+04   -0.11691E+04    96   0.318E+02
DAV:   3    -0.701977862063E+02   -0.21054E+03   -0.20981E+03    96   0.105E+02
DAV:   4    -0.795198155581E+02   -0.93220E+01   -0.93153E+01    96   0.250E+01
DAV:   5    -0.797723470323E+02   -0.25253E+00   -0.25246E+00    96   0.458E+00
 gam= 0.000 g(H,U,f)=  0.831E+02 0.983E+01-0.160E-23 ort(H,U,f) = 0.000E+00 0.000E+00 0.000E+00
SDA:   6    -0.407250432349E+02    0.39047E+02   -0.25246E+00    96   0.929E+02 0.000E+00
 gam= 0.000 trial= 0.400  step= 0.373 mean= 0.400
 gam= 0.103 g(H,U,f)=  0.677E+01 0.276E+01 0.308E-06 ort(H,U,f) =-0.999E+01 0.807E+01 0.794E-06
CGA:   7    -0.581000665120E+02   -0.17375E+02   -0.17328E+02    96   0.953E+01-0.192E+01
 gam= 0.103 trial= 0.399  step= 0.156 mean= 0.399
 gam= 0.000 g(H,U,f)=  0.819E+01 0.246E+01 0.326E+00 ort(H,U,f) = 0.354E+01 0.150E+02 0.250E+01
CGA:   8    -0.610817279360E+02   -0.29817E+01   -0.72912E+00    96   0.110E+02 0.211E+02
 gam= 0.000 trial= 0.387  step= 0.368 mean= 0.387
 gam= 2.049 g(H,U,f)=  0.476E+01 0.104E+02 0.731E+01 ort(H,U,f) = 0.476E+01-0.992E+00-0.214E+01
CGA:   9    -0.630633108013E+02   -0.19816E+01   -0.20179E+01    96   0.225E+02 0.163E+01
 gam= 2.049 trial= 0.386  step= 0.082 mean= 0.386
 gam= 0.106 g(H,U,f)=  0.150E+01 0.780E+00 0.109E+00 ort(H,U,f) =-0.697E+00 0.297E+01 0.176E+00
CGA:  10    -0.642080246765E+02   -0.11447E+01   -0.10545E+01    96   0.238E+01 0.245E+01
 gam= 0.106 trial= 0.370  step= 0.191 mean= 0.370
 gam= 2.151 g(H,U,f)=  0.113E+01 0.265E+01 0.135E+01 ort(H,U,f) = 0.334E+00 0.754E-01-0.418E+00
CGA:  11    -0.644552854856E+02   -0.24726E+00   -0.25251E+00    96   0.513E+01-0.877E-02
 gam= 2.151 trial= 0.361  step= 0.036 mean= 0.361
 gam= 0.000 g(H,U,f)=  0.876E+00 0.179E+01 0.121E+01 ort(H,U,f) = 0.128E+01 0.191E+01 0.526E+00
CGA:  12    -0.646133182838E+02   -0.15803E+00   -0.90850E-01    96   0.388E+01 0.372E+01
 gam= 0.000 trial= 0.345  step= 0.145 mean= 0.345
 gam= 0.571 g(H,U,f)=  0.365E+00 0.110E+01 0.751E+00 ort(H,U,f) = 0.166E+00-0.539E+00-0.739E+00
CGA:  13    -0.647532033551E+02   -0.13989E+00   -0.28189E+00    96   0.221E+01-0.111E+01
 gam= 0.571 trial= 0.335  step= 0.320 mean= 0.335
 gam= 0.573 g(H,U,f)=  0.305E+00 0.629E+00 0.333E+00 ort(H,U,f) = 0.104E+00-0.225E+00-0.576E+00
CGA:  14    -0.650176757466E+02   -0.26447E+00   -0.25254E+00    96   0.127E+01-0.697E+00
 gam= 0.573 trial= 0.334  step= 0.297 mean= 0.334
 gam= 0.602 g(H,U,f)=  0.180E+00 0.436E+00 0.148E+00 ort(H,U,f) = 0.180E-01 0.381E-01 0.295E-02
CGA:  15    -0.651437652474E+02   -0.12609E+00   -0.12895E+00    96   0.763E+00 0.591E-01
 gam= 0.602 trial= 0.333  step= 0.054 mean= 0.333
 gam= 0.000 g(H,U,f)=  0.116E+00 0.981E-01 0.264E-01 ort(H,U,f) = 0.130E+00 0.242E+00 0.781E-01
CGA:  16    -0.651783724580E+02   -0.34607E-01   -0.21701E-01    96   0.240E+00 0.450E+00
 gam= 0.000 trial= 0.319  step= 0.168 mean= 0.319
 gam= 0.913 g(H,U,f)=  0.507E-01 0.156E+00 0.127E-01 ort(H,U,f) = 0.607E-01-0.392E-01-0.182E-01
CGA:  17    -0.651991922968E+02   -0.20820E-01   -0.20122E-01    96   0.219E+00 0.334E-02
 gam= 0.913 trial= 0.311  step= 0.185 mean= 0.311
 gam= 0.681 g(H,U,f)=  0.202E-01 0.118E+00 0.114E-01 ort(H,U,f) = 0.159E-01-0.190E-01 0.380E-02
CGA:  18    -0.652201734409E+02   -0.20981E-01   -0.20555E-01    96   0.149E+00 0.720E-03
 gam= 0.681 trial= 0.305  step= 0.186 mean= 0.305
 gam= 0.681 g(H,U,f)=  0.156E-01 0.320E-01 0.541E-01 ort(H,U,f) =-0.549E-02 0.346E-01-0.302E-01
CGA:  19    -0.652338179845E+02   -0.13645E-01   -0.13974E-01    96   0.102E+00-0.106E-02
 gam= 0.681 trial= 0.299  step= 0.269 mean= 0.299
 gam= 0.369 g(H,U,f)=  0.189E-01 0.124E-01 0.618E-02 ort(H,U,f) =-0.170E-01 0.251E-01-0.123E-01
CGA:  20    -0.652475532903E+02   -0.13735E-01   -0.13580E-01    96   0.375E-01-0.417E-02
 gam= 0.369 trial= 0.297  step= 0.375 mean= 0.297
 gam= 0.631 g(H,U,f)=  0.542E-02 0.130E-01 0.522E-02 ort(H,U,f) = 0.447E-02-0.204E-02-0.173E-02
CGA:  21    -0.652543286624E+02   -0.67754E-02   -0.67365E-02    96   0.236E-01 0.703E-03
 gam= 0.631 trial= 0.301  step= 0.194 mean= 0.301
 gam= 0.531 g(H,U,f)=  0.345E-02 0.522E-02 0.389E-02 ort(H,U,f) = 0.487E-02-0.121E-02-0.357E-02
CGA:  22    -0.652566995258E+02   -0.23709E-02   -0.23314E-02    96   0.126E-01 0.958E-04
 gam= 0.531 trial= 0.296  step= 0.142 mean= 0.296
 gam= 0.463 g(H,U,f)=  0.179E-02 0.317E-02 0.846E-03 ort(H,U,f) = 0.319E-02-0.322E-02 0.563E-04
CGA:  23    -0.652575918660E+02   -0.89234E-03   -0.89232E-03    96   0.581E-02 0.248E-04
 gam= 0.463 trial= 0.288  step= 0.143 mean= 0.288
 gam= 0.701 g(H,U,f)=  0.963E-03 0.172E-02 0.138E-02 ort(H,U,f) = 0.168E-02-0.534E-03-0.122E-02
CGA:  24    -0.652579965844E+02   -0.40472E-03   -0.41531E-03    96   0.407E-02-0.710E-04
 gam= 0.701 trial= 0.281  step= 0.259 mean= 0.281
 gam= 0.160 g(H,U,f)=  0.375E-03 0.154E-03 0.124E-03 ort(H,U,f) = 0.131E-03-0.553E-05-0.153E-03
CGA:  25    -0.652585174713E+02   -0.52089E-03   -0.52045E-03    96   0.653E-03-0.276E-04
 gam= 0.160 trial= 0.280  step= 0.297 mean= 0.280
 gam= 1.889 g(H,U,f)=  0.289E-03 0.577E-03 0.367E-03 ort(H,U,f) = 0.226E-03-0.575E-04-0.166E-03
CGA:  26    -0.652586139450E+02   -0.96474E-04   -0.96419E-04    96   0.123E-02 0.253E-05
 gam= 1.889 trial= 0.281  step= 0.165 mean= 0.281
 gam= 0.614 g(H,U,f)=  0.181E-03 0.535E-03 0.408E-04 ort(H,U,f) = 0.280E-03-0.254E-03-0.293E-04
CGA:  27    -0.652587167332E+02   -0.10279E-03   -0.10231E-03    96   0.757E-03-0.318E-05
 gam= 0.614 trial= 0.275  step= 0.162 mean= 0.275
 gam= 0.430 g(H,U,f)=  0.959E-04 0.742E-04 0.155E-03 ort(H,U,f) = 0.122E-03-0.794E-04-0.421E-04
CGA:  28    -0.652587778549E+02   -0.61122E-04   -0.61027E-04    96   0.325E-03 0.820E-07
 gam= 0.430 trial= 0.269  step= 0.196 mean= 0.269
 final diagonalization
FORCES:
    -0.6204206    -0.7248704    -1.2317804
     0.2181574     0.5969733     0.1061274
    -1.2873546     1.2051429    -0.8754113
    -0.5312944     0.1783213     1.1953618
    -1.1491360    -0.5814971    -0.9677369
     0.3465941    -0.6785199     1.1160029
    -0.8868813     1.0678518     0.8629583
     0.2824857    -0.3494124    -0.3505830
     1.5636789    -1.0745103    -0.1466475
     1.1478812     0.5520813     0.9524348
    -0.0981826     0.3972554     0.2735449
     0.4419259    -0.9416038    -0.6584260
     0.5653915    -0.2706174     0.7283477
     0.2270118     0.6892486     0.0904710
     1.5713391    -0.0443707    -0.6820608
     1.0254960     1.3445706     0.1327415
    -0.9005609    -0.2171521    -0.5493798
     0.6123131     0.1750021     1.2314772
    -0.5509869    -0.8730517    -0.1385529
    -0.1677577    -0.0852577    -0.4334028
    -1.4256737     0.9944303     0.4472378
    -0.2095336     0.4068770     0.5909538
     0.1854811     0.0687155    -0.0739472
    -0.3116637    -0.6788060    -0.8705672
    -0.9340969    -0.6587689    -0.6010319
     0.1882439     0.3631128     0.2332817
     0.9564359    -0.4401555    -0.0487270
    -0.2588928    -0.4209890    -0.3326861
   1 F= -.65258778E+02 E0= -.65231451E+02  d E =-.652588E+02
POSITIONS: reading from stdin
Inputting positions...
New scaled positions
     0.6919874     0.2261863     0.1591713
     0.1631758     0.0184779     0.5024432
     0.6879403     0.7233813     0.0324632
     0.8264161     0.0427262     0.4663836
     0.8079656     0.5300069     0.7635959
     0.5134213     0.0253426     0.5998380
     0.5297317     0.5195763     0.2577421
     0.9719374     0.8001723     0.2532033
     0.1699090     0.5230477     0.8539499
     0.2138412     0.8637256     0.7960640
     0.3870196     0.2158760     0.3338736
     0.0501748     0.6742836     0.5618038
     0.9105515     0.4795301     0.0951844
     0.0370831     0.1955550     0.2408151
     0.7166984     0.7010721     0.4747678
     0.5759440     0.9331039     0.2681437
     0.3434867     0.7318092     0.0787643
     0.5127631     0.4185104     0.9235809
     0.2711968     0.1972524     0.7818317
     0.0249248     0.3308163     0.5665252
     0.3581344     0.7552479     0.4455492
     0.5090753     0.7126696     0.7505685
     0.5134460     0.0059554     0.9393403
     0.6784321     0.3430197     0.4997743
     0.1836576     0.5022532     0.2922613
     0.7584784     0.1994643     0.7982906
     0.8268927     0.8687494     0.7550605
     0.3647930     0.4492403     0.5816479
Old scaled positions
     0.6928950     0.2272467     0.1609734
     0.1628567     0.0176045     0.5022879
     0.6898237     0.7216183     0.0337439
     0.8271933     0.0424653     0.4646348
     0.8096468     0.5308576     0.7650117
     0.5129143     0.0263353     0.5982053
     0.5310292     0.5180141     0.2564797
     0.9715242     0.8006835     0.2537161
     0.1676214     0.5246197     0.8541645
     0.2121619     0.8629179     0.7946707
     0.3871632     0.2152949     0.3334734
     0.0495283     0.6756611     0.5627671
     0.9097243     0.4799260     0.0941189
     0.0367510     0.1945467     0.2406828
     0.7143996     0.7011370     0.4757657
     0.5744438     0.9311368     0.2679495
     0.3448042     0.7321269     0.0795680
     0.5118673     0.4182543     0.9217793
     0.2720029     0.1985297     0.7820344
     0.0251703     0.3309410     0.5671593
     0.3602201     0.7537930     0.4448949
     0.5093818     0.7120743     0.7497040
     0.5131747     0.0058549     0.9394485
     0.6788881     0.3440128     0.5010479
     0.1850241     0.5032169     0.2931406
     0.7582030     0.1989331     0.7979493
     0.8254934     0.8693934     0.7551318
     0.3651717     0.4498561     0.5821346
POSITIONS: read from stdin
LATTICE: reading from stdin
New   direct lattice vectors                   reciprocal lattice vectors
       9.7649645    0.0000000    0.0000000       0.1024069    0.0000000    0.0000000
       0.0000000    9.7649645    0.0000000       0.0000000    0.1024069    0.0000000
       0.0000000    0.0000000    9.7649645       0.0000000    0.0000000    0.1024069


Old   direct lattice vectors                   reciprocal lattice vectors
       9.7649645    0.0000000    0.0000000       0.1024069    0.0000000    0.0000000
       0.0000000    9.7649645    0.0000000       0.0000000    0.1024069    0.0000000
       0.0000000    0.0000000    9.7649645       0.0000000    0.0000000    0.1024069


LATTICE: read from stdin
 bond charge predicted
 wavefunctions rotated
       N       E                     dE             d eps       ncg     rms          ort
 gam= 0.000 g(H,U,f)=  0.805E+01 0.391E+00 0.334E-02 ort(H,U,f) = 0.000E+00 0.000E+00 0.000E+00
SDA:   1    -0.634225078746E+02    0.18362E+01    0.00000E+00    96   0.844E+01 0.000E+00
 gam= 0.000 trial= 0.266  step= 0.415 mean= 0.266
 gam= 0.495 g(H,U,f)=  0.154E+01 0.184E+01 0.801E+00 ort(H,U,f) = 0.699E+00-0.521E+00-0.145E+00
CGA:   2    -0.651799447738E+02   -0.17574E+01   -0.17537E+01    96   0.418E+01 0.331E-01
 gam= 0.495 trial= 0.273  step= 0.099 mean= 0.273
 gam= 0.553 g(H,U,f)=  0.108E+01 0.814E+00 0.414E+00 ort(H,U,f) = 0.966E+00-0.886E+00-0.483E+00
CGA:   3    -0.653681049904E+02   -0.18816E+00   -0.20685E+00    96   0.231E+01-0.403E+00
 gam= 0.553 trial= 0.264  step= 0.296 mean= 0.264
 gam= 0.420 g(H,U,f)=  0.441E+00 0.415E+00 0.114E+00 ort(H,U,f) = 0.326E+00-0.239E+00 0.111E-01
CGA:   4    -0.656799354981E+02   -0.31183E+00   -0.30918E+00    96   0.971E+00 0.984E-01
 gam= 0.420 trial= 0.266  step= 0.148 mean= 0.266
 gam= 0.602 g(H,U,f)=  0.238E+00 0.208E+00 0.138E+00 ort(H,U,f) = 0.300E+00-0.152E+00-0.123E+00
CGA:   5    -0.657604604150E+02   -0.80525E-01   -0.75114E-01    96   0.584E+00 0.256E-01
 gam= 0.602 trial= 0.260  step= 0.224 mean= 0.260
 gam= 0.309 g(H,U,f)=  0.938E-01 0.831E-01 0.340E-02 ort(H,U,f) = 0.857E-01-0.821E-01 0.400E-02
CGA:   6    -0.658272742706E+02   -0.66814E-01   -0.67193E-01    96   0.180E+00 0.757E-02
 gam= 0.309 trial= 0.258  step= 0.228 mean= 0.258
 gam= 1.079 g(H,U,f)=  0.513E-01 0.620E-01 0.813E-01 ort(H,U,f) = 0.524E-01-0.288E-01-0.218E-01
CGA:   7    -0.658480058011E+02   -0.20732E-01   -0.20800E-01    96   0.194E+00 0.178E-02
 gam= 1.079 trial= 0.257  step= 0.147 mean= 0.257
 gam= 0.325 g(H,U,f)=  0.280E-01 0.194E-01 0.158E-01 ort(H,U,f) = 0.326E-01-0.121E-01-0.193E-01
CGA:   8    -0.658626632472E+02   -0.14657E-01   -0.14452E-01    96   0.633E-01 0.111E-02
 gam= 0.325 trial= 0.251  step= 0.217 mean= 0.251
 gam= 0.881 g(H,U,f)=  0.148E-01 0.294E-01 0.116E-01 ort(H,U,f) = 0.162E-01-0.107E-01-0.736E-02
CGA:   9    -0.658696598151E+02   -0.69966E-02   -0.69023E-02    96   0.557E-01-0.187E-02
 gam= 0.881 trial= 0.250  step= 0.147 mean= 0.250
 gam= 0.357 g(H,U,f)=  0.783E-02 0.114E-01 0.690E-03 ort(H,U,f) = 0.103E-01-0.946E-02-0.766E-03
CGA:  10    -0.658736414498E+02   -0.39816E-02   -0.39743E-02    96   0.199E-01 0.292E-04
 gam= 0.357 trial= 0.244  step= 0.302 mean= 0.244
 gam= 0.430 g(H,U,f)=  0.289E-02 0.253E-02 0.313E-02 ort(H,U,f) = 0.151E-02-0.394E-03-0.111E-02
CGA:  11    -0.658766430183E+02   -0.30016E-02   -0.30010E-02    96   0.855E-02 0.389E-05
 gam= 0.430 trial= 0.247  step= 0.139 mean= 0.247
 gam= 0.645 g(H,U,f)=  0.195E-02 0.227E-02 0.130E-02 ort(H,U,f) = 0.196E-02-0.375E-03-0.158E-02
CGA:  12    -0.658772439958E+02   -0.60098E-03   -0.59622E-03    96   0.552E-02-0.146E-05
 gam= 0.645 trial= 0.242  step= 0.290 mean= 0.242
 gam= 0.640 g(H,U,f)=  0.763E-03 0.197E-02 0.797E-03 ort(H,U,f) = 0.514E-03-0.215E-03-0.348E-03
CGA:  13    -0.658780425960E+02   -0.79860E-03   -0.79994E-03    96   0.353E-02-0.487E-04
 gam= 0.640 trial= 0.244  step= 0.116 mean= 0.244
 gam= 0.408 g(H,U,f)=  0.544E-03 0.887E-03 0.998E-05 ort(H,U,f) = 0.471E-03-0.405E-03-0.666E-04
CGA:  14    -0.658782439299E+02   -0.20133E-03   -0.20326E-03    96   0.144E-02-0.903E-06
 gam= 0.408 trial= 0.238  step= 0.320 mean= 0.238
 gam= 0.434 g(H,U,f)=  0.244E-03 0.233E-03 0.150E-03 ort(H,U,f) = 0.131E-03-0.247E-04-0.648E-04
CGA:  15    -0.658784764036E+02   -0.23247E-03   -0.23077E-03    96   0.626E-03 0.410E-04
 gam= 0.434 trial= 0.242  step= 0.204 mean= 0.242
 gam= 1.114 g(H,U,f)=  0.168E-03 0.320E-03 0.210E-03 ort(H,U,f) = 0.160E-03-0.285E-04-0.123E-03
CGA:  16    -0.658785419790E+02   -0.65575E-04   -0.65723E-04    96   0.698E-03 0.813E-05
 gam= 1.114 trial= 0.240  step= 0.217 mean= 0.240
 final diagonalization
FORCES:
    -0.6168100    -0.7132403    -1.2463234
     0.1951561     0.5908041     0.1165677
    -1.2592303     1.1768931    -0.8589894
    -0.4771661     0.1952551     1.1515503
    -1.1002298    -0.5815062    -0.9239708
     0.3262253    -0.6548715     1.1115639
    -0.8583037     1.0339177     0.8332317
     0.2716753    -0.3375123    -0.3743596
     1.5291034    -1.0574600    -0.1323000
     1.1078366     0.5257920     0.9506735
    -0.0761536     0.4043280     0.2909546
     0.4548823    -0.9309794    -0.6182036
     0.5727358    -0.2478132     0.7123915
     0.1917839     0.7046062     0.0892645
     1.5133660    -0.0436517    -0.6748933
     0.9748179     1.2991092     0.1371237
    -0.8886696    -0.1997474    -0.5152038
     0.5907575     0.1568675     1.2165793
    -0.5267176    -0.8503754    -0.1292404
    -0.1600289    -0.0940208    -0.4329593
    -1.3861971     0.9862670     0.4285632
    -0.2042540     0.3834495     0.5402187
     0.1894486     0.0636965    -0.0688697
    -0.3128318    -0.6798390    -0.8658656
    -0.9255436    -0.6501478    -0.5964252
     0.1854039     0.3607208     0.2351863
     0.9399167    -0.4311069    -0.0480317
    -0.2509729    -0.4094347    -0.3282333
   2 F= -.65878542E+02 E0= -.65851631E+02  d E =-.658785E+02
POSITIONS: reading from stdin
Inputting positions...
New scaled positions
     0.6854295     0.2186016     0.1459249
     0.1652553     0.0247598     0.5036802
     0.6745479     0.7358985     0.0233281
     0.8213322     0.0447984     0.4786345
     0.7962592     0.5238250     0.7537644
     0.5168935     0.0183759     0.6116557
     0.5206014     0.5305747     0.2666062
     0.9748278     0.7965818     0.2492284
     0.1861717     0.5118025     0.8525405
     0.2256267     0.8693206     0.8061708
     0.3862055     0.2201729     0.3369631
     0.0550079     0.6643844     0.5552235
     0.9166386     0.4768909     0.1027610
     0.0391292     0.2030424     0.2417643
     0.7327987     0.7006079     0.4675917
     0.5863176     0.9469238     0.2696006
     0.3340370     0.7296821     0.0732802
     0.5190477     0.4201817     0.9365172
     0.2655924     0.1882076     0.7804558
     0.0232220     0.3298186     0.5619224
     0.3433898     0.7657344     0.4501090
     0.5069028     0.7167508     0.7563219
     0.5154592     0.0066336     0.9386071
     0.6751067     0.3357927     0.4905685
     0.1738166     0.4953398     0.2859199
     0.7604500     0.2032996     0.8007904
     0.8368881     0.8641646     0.7545497
     0.3621233     0.4448853     0.5781575
Old scaled positions
     0.6928950     0.2272467     0.1609734
     0.1628567     0.0176045     0.5022879
     0.6898237     0.7216183     0.0337439
     0.8271933     0.0424653     0.4646348
     0.8096468     0.5308576     0.7650117
     0.5129143     0.0263353     0.5982053
     0.5310292     0.5180141     0.2564797
     0.9715242     0.8006835     0.2537161
     0.1676214     0.5246197     0.8541645
     0.2121619     0.8629179     0.7946707
     0.3871632     0.2152949     0.3334734
     0.0495283     0.6756611     0.5627671
     0.9097243     0.4799260     0.0941189
     0.0367510     0.1945467     0.2406828
     0.7143996     0.7011370     0.4757657
     0.5744438     0.9311368     0.2679495
     0.3448042     0.7321269     0.0795680
     0.5118673     0.4182543     0.9217793
     0.2720029     0.1985297     0.7820344
     0.0251703     0.3309410     0.5671593
     0.3602201     0.7537930     0.4448949
     0.5093818     0.7120743     0.7497040
     0.5131747     0.0058549     0.9394485
     0.6788881     0.3440128     0.5010479
     0.1850241     0.5032169     0.2931406
     0.7582030     0.1989331     0.7979493
     0.8254934     0.8693934     0.7551318
     0.3651717     0.4498561     0.5821346
POSITIONS: read from stdin
LATTICE: reading from stdin
New   direct lattice vectors                   reciprocal lattice vectors
       9.7649645    0.0000000    0.0000000       0.1024069    0.0000000    0.0000000
       0.0000000    9.7649645    0.0000000       0.0000000    0.1024069    0.0000000
       0.0000000    0.0000000    9.7649645       0.0000000    0.0000000    0.1024069


Old   direct lattice vectors                   reciprocal lattice vectors
       9.7649645    0.0000000    0.0000000       0.1024069    0.0000000    0.0000000
       0.0000000    9.7649645    0.0000000       0.0000000    0.1024069    0.0000000
       0.0000000    0.0000000    9.7649645       0.0000000    0.0000000    0.1024069


LATTICE: read from stdin
 bond charge predicted
 wavefunctions rotated
       N       E                     dE             d eps       ncg     rms          ort
 gam= 0.000 g(H,U,f)=  0.379E+03 0.184E+02 0.459E-02 ort(H,U,f) = 0.000E+00 0.000E+00 0.000E+00
SDA:   1     0.521187921399E+02    0.11800E+03    0.00000E+00    96   0.397E+03 0.000E+00
 gam= 0.000 trial= 0.239  step= 0.409 mean= 0.239
 gam= 0.303 g(H,U,f)=  0.919E+02 0.286E+02 0.255E-08 ort(H,U,f) = 0.229E+02-0.135E+02-0.652E-09
CGA:   2    -0.295244427939E+02   -0.81643E+02   -0.81241E+02    96   0.121E+03 0.940E+01
 gam= 0.303 trial= 0.247  step= 0.440 mean= 0.247
 gam= 1.103 g(H,U,f)=  0.570E+02 0.592E+02 0.168E+02 ort(H,U,f) =-0.122E+02-0.447E+01 0.484E+00
CGA:   3    -0.495908264908E+02   -0.20066E+02   -0.27132E+02    96   0.133E+03-0.161E+02
 gam= 1.103 trial= 0.257  step= 0.144 mean= 0.257
 gam= 0.429 g(H,U,f)=  0.472E+02 0.694E+01 0.285E+01 ort(H,U,f) = 0.347E+01-0.142E+00-0.150E+01
CGA:   4    -0.540422737725E+02   -0.44514E+01   -0.82859E+01    96   0.570E+02 0.183E+01
 gam= 0.429 trial= 0.251  step= 0.337 mean= 0.251
 gam= 0.581 g(H,U,f)=  0.226E+02 0.104E+02 0.908E-07 ort(H,U,f) =-0.174E+02-0.931E+01-0.102E-06
CGA:   5    -0.614998493988E+02   -0.74576E+01   -0.97326E+01    96   0.331E+02-0.267E+02
 gam= 0.581 trial= 0.256  step= 0.389 mean= 0.256
 gam= 0.555 g(H,U,f)=  0.134E+02 0.491E+01 0.887E-03 ort(H,U,f) =-0.347E+01 0.300E+01 0.560E-03
CGA:   6    -0.648799068339E+02   -0.33801E+01   -0.34174E+01    96   0.184E+02-0.469E+00
 gam= 0.555 trial= 0.262  step= 0.115 mean= 0.262
 gam= 0.000 g(H,U,f)=  0.775E+01 0.137E+01 0.189E+01 ort(H,U,f) = 0.644E+01 0.298E+01 0.367E+01
CGA:   7    -0.666096906232E+02   -0.17298E+01   -0.10394E+01    96   0.110E+02 0.131E+02
 gam= 0.000 trial= 0.255  step= 0.082 mean= 0.255
 gam= 0.000 g(H,U,f)=  0.482E+01 0.593E+00 0.399E+01 ort(H,U,f) = 0.600E+01 0.918E+00 0.809E+01
CGA:   8    -0.677302211189E+02   -0.11205E+01   -0.44867E+00    96   0.940E+01 0.150E+02
 gam= 0.000 trial= 0.246  step= 0.092 mean= 0.246
 gam= 0.466 g(H,U,f)=  0.338E+01 0.514E+00 0.490E+00 ort(H,U,f) = 0.371E+01-0.128E+00-0.168E+01
CGA:   9    -0.683407590724E+02   -0.61054E+00   -0.43457E+00    96   0.439E+01 0.190E+01
 gam= 0.466 trial= 0.239  step= 0.336 mean= 0.239
 gam= 2.143 g(H,U,f)=  0.127E+01 0.799E+01 0.140E+00 ort(H,U,f) = 0.131E+01-0.858E+00 0.144E-01
CGA:  10    -0.692558449947E+02   -0.91509E+00   -0.88599E+00    96   0.940E+01 0.464E+00
 gam= 2.143 trial= 0.243  step= 0.065 mean= 0.243
 gam= 0.208 g(H,U,f)=  0.947E+00 0.844E+00 0.168E+00 ort(H,U,f) = 0.125E-01-0.108E+01-0.781E+00
CGA:  11    -0.695402392027E+02   -0.28439E+00   -0.33876E+00    96   0.196E+01-0.184E+01
 gam= 0.208 trial= 0.235  step= 0.303 mean= 0.235
 gam= 0.544 g(H,U,f)=  0.574E+00 0.302E+00 0.190E+00 ort(H,U,f) =-0.762E-01-0.115E+00-0.517E-01
CGA:  12    -0.697686396177E+02   -0.22840E+00   -0.23831E+00    96   0.107E+01-0.242E+00
 gam= 0.544 trial= 0.238  step= 0.102 mean= 0.238
 gam= 0.758 g(H,U,f)=  0.388E+00 0.327E+00 0.928E-01 ort(H,U,f) = 0.332E+00-0.109E+00-0.134E+00
CGA:  13    -0.698227956157E+02   -0.54156E-01   -0.47513E-01    96   0.808E+00 0.889E-01
 gam= 0.758 trial= 0.231  step= 0.204 mean= 0.231
 gam= 0.501 g(H,U,f)=  0.108E+00 0.212E+00 0.844E-01 ort(H,U,f) = 0.895E-01-0.666E-01-0.800E-02
CGA:  14    -0.699116410316E+02   -0.88845E-01   -0.89359E-01    96   0.405E+00 0.148E-01
 gam= 0.501 trial= 0.230  step= 0.139 mean= 0.230
 gam= 0.319 g(H,U,f)=  0.567E-01 0.501E-01 0.223E-01 ort(H,U,f) = 0.409E-02 0.168E-02-0.117E-01
CGA:  15    -0.699373542962E+02   -0.25713E-01   -0.28713E-01    96   0.129E+00-0.591E-02
 gam= 0.319 trial= 0.225  step= 0.128 mean= 0.225
 gam= 0.915 g(H,U,f)=  0.441E-01 0.361E-01 0.379E-01 ort(H,U,f) = 0.338E-01-0.969E-02-0.245E-01
CGA:  16    -0.699454852561E+02   -0.81310E-02   -0.81718E-02    96   0.118E+00-0.429E-03
 gam= 0.915 trial= 0.220  step= 0.188 mean= 0.220
 gam= 0.668 g(H,U,f)=  0.260E-01 0.440E-01 0.889E-02 ort(H,U,f) = 0.246E-01-0.246E-01-0.258E-02
CGA:  17    -0.699567024919E+02   -0.11217E-01   -0.11088E-01    96   0.789E-01-0.257E-02
 gam= 0.668 trial= 0.219  step= 0.185 mean= 0.219
 gam= 0.471 g(H,U,f)=  0.168E-01 0.127E-01 0.767E-02 ort(H,U,f) = 0.110E-01-0.612E-02-0.667E-02
CGA:  18    -0.699639401998E+02   -0.72377E-02   -0.71371E-02    96   0.372E-01-0.183E-02
 gam= 0.471 trial= 0.217  step= 0.188 mean= 0.217
 gam= 1.052 g(H,U,f)=  0.998E-02 0.126E-01 0.165E-01 ort(H,U,f) = 0.919E-02-0.215E-02-0.694E-02
CGA:  19    -0.699673503709E+02   -0.34102E-02   -0.34173E-02    96   0.391E-01 0.969E-04
 gam= 1.052 trial= 0.216  step= 0.122 mean= 0.216
 gam= 0.419 g(H,U,f)=  0.583E-02 0.997E-02 0.580E-03 ort(H,U,f) = 0.556E-02-0.427E-02-0.144E-02
CGA:  20    -0.699697140848E+02   -0.23637E-02   -0.23907E-02    96   0.164E-01-0.151E-03
 gam= 0.419 trial= 0.211  step= 0.189 mean= 0.211
 gam= 0.485 g(H,U,f)=  0.344E-02 0.316E-02 0.135E-02 ort(H,U,f) = 0.205E-02-0.124E-02-0.734E-03
CGA:  21    -0.699712565006E+02   -0.15424E-02   -0.15449E-02    96   0.795E-02 0.815E-04
 gam= 0.485 trial= 0.210  step= 0.220 mean= 0.210
 gam= 0.451 g(H,U,f)=  0.189E-02 0.162E-02 0.723E-04 ort(H,U,f) = 0.137E-02-0.125E-02-0.237E-03
CGA:  22    -0.699721325845E+02   -0.87608E-03   -0.87729E-03    96   0.359E-02-0.110E-03
 gam= 0.451 trial= 0.210  step= 0.289 mean= 0.210
 gam= 0.982 g(H,U,f)=  0.102E-02 0.162E-02 0.890E-03 ort(H,U,f) = 0.794E-03-0.634E-03-0.145E-03
CGA:  23    -0.699726434098E+02   -0.51083E-03   -0.51046E-03    96   0.352E-02 0.136E-04
 gam= 0.982 trial= 0.214  step= 0.180 mean= 0.214
 gam= 0.440 g(H,U,f)=  0.661E-03 0.415E-03 0.473E-03 ort(H,U,f) = 0.293E-03-0.210E-04-0.267E-03
CGA:  24    -0.699729603694E+02   -0.31696E-03   -0.31769E-03    96   0.155E-02 0.487E-05
 gam= 0.440 trial= 0.213  step= 0.118 mean= 0.213
 gam= 0.679 g(H,U,f)=  0.511E-03 0.291E-03 0.250E-03 ort(H,U,f) = 0.508E-03-0.202E-03-0.297E-03
CGA:  25    -0.699730513569E+02   -0.90988E-04   -0.91609E-04    96   0.105E-02 0.917E-05
 gam= 0.679 trial= 0.208  step= 0.255 mean= 0.208
 gam= 0.972 g(H,U,f)=  0.276E-03 0.622E-03 0.125E-03 ort(H,U,f) = 0.312E-03-0.325E-03 0.110E-04
CGA:  26    -0.699731860969E+02   -0.13474E-03   -0.13478E-03    96   0.102E-02-0.175E-05
 gam= 0.972 trial= 0.210  step= 0.185 mean= 0.210
 gam= 0.320 g(H,U,f)=  0.168E-03 0.108E-03 0.510E-04 ort(H,U,f) = 0.856E-04-0.280E-06-0.802E-04
CGA:  27    -0.699732803946E+02   -0.94298E-04   -0.94286E-04    96   0.327E-03 0.520E-05
 gam= 0.320 trial= 0.209  step= 0.236 mean= 0.209
 final diagonalization
FORCES:
    -0.5799086    -0.6595106    -1.4572195
     0.0467220     0.4722942     0.3181053
    -0.9933772     1.0104468    -0.6978123
    -0.2585573     0.2688606     0.9884015
    -0.8989189    -0.5356347    -0.7199515
     0.2209251    -0.4983797     1.1358557
    -0.6370158     0.9308426     0.7255465
     0.2290728    -0.2816557    -0.3879889
     1.3413414    -0.8238143    -0.2187800
     0.8549192     0.3210866     0.8333114
     0.1427656     0.5746763     0.5331829
     0.4851640    -0.8968732    -0.3777777
     0.5698619    -0.1399760     0.6096206
     0.0543450     0.7361372     0.0839648
     1.2210986     0.0007288    -0.6693723
     0.7316456     0.9862438     0.2252159
    -0.8677968    -0.1248251    -0.2727898
     0.4941847     0.1048762     1.0818223
    -0.3951266    -0.7311640    -0.1605093
    -0.1324297    -0.1944676    -0.4563303
    -1.1814954     0.9290291     0.3401143
    -0.1886571     0.2236297     0.1932982
     0.1992770     0.0122727    -0.0381852
    -0.3329694    -0.6988102    -0.8529478
    -0.8784743    -0.5972272    -0.5640660
     0.1693443     0.3152592     0.2331588
     0.8021322    -0.3560837    -0.0677627
    -0.2180724    -0.3479618    -0.3601047
   3 F= -.69973280E+02 E0= -.69946416E+02  d E =-.699733E+02
POSITIONS: reading from stdin
Inputting positions...
New scaled positions
     0.6787503     0.2108937     0.1319652
     0.1671506     0.0310208     0.5052832
     0.6612196     0.7484918     0.0142038
     0.8164600     0.0470469     0.4909624
     0.7845533     0.5175478     0.7439905
     0.5202912     0.0114711     0.6238417
     0.5115794     0.5417129     0.2755427
     0.9777296     0.7929823     0.2451250
     0.2025801     0.5006296     0.8509465
     0.2373270     0.8747364     0.8163636
     0.3857273     0.2248694     0.3405359
     0.0600227     0.6542655     0.5488519
     0.9228883     0.4743532     0.1103802
     0.0410106     0.2107867     0.2427313
     0.7488712     0.7002042     0.4602247
     0.5965848     0.9606167     0.2712427
     0.3243580     0.7276171     0.0680394
     0.5253504     0.4218165     0.9495914
     0.2600462     0.1791056     0.7789885
     0.0215164     0.3286286     0.5571534
     0.3285689     0.7764180     0.4546520
     0.5046951     0.7206846     0.7616694
     0.5175437     0.0072463     0.9379035
     0.6716561     0.3283343     0.4811283
     0.1637794     0.4883211     0.2794556
     0.7624501     0.2071662     0.8033558
     0.8469353     0.8595753     0.7539920
     0.3594328     0.4405094     0.5745171
Old scaled positions
     0.6928950     0.2272467     0.1609734
     0.1628567     0.0176045     0.5022879
     0.6898237     0.7216183     0.0337439
     0.8271933     0.0424653     0.4646348
     0.8096468     0.5308576     0.7650117
     0.5129143     0.0263353     0.5982053
     0.5310292     0.5180141     0.2564797
     0.9715242     0.8006835     0.2537161
     0.1676214     0.5246197     0.8541645
     0.2121619     0.8629179     0.7946707
     0.3871632     0.2152949     0.3334734
     0.0495283     0.6756611     0.5627671
     0.9097243     0.4799260     0.0941189
     0.0367510     0.1945467     0.2406828
     0.7143996     0.7011370     0.4757657
     0.5744438     0.9311368     0.2679495
     0.3448042     0.7321269     0.0795680
     0.5118673     0.4182543     0.9217793
     0.2720029     0.1985297     0.7820344
     0.0251703     0.3309410     0.5671593
     0.3602201     0.7537930     0.4448949
     0.5093818     0.7120743     0.7497040
     0.5131747     0.0058549     0.9394485
     0.6788881     0.3440128     0.5010479
     0.1850241     0.5032169     0.2931406
     0.7582030     0.1989331     0.7979493
     0.8254934     0.8693934     0.7551318
     0.3651717     0.4498561     0.5821346
POSITIONS: read from stdin
LATTICE: reading from stdin
New   direct lattice vectors                   reciprocal lattice vectors
       9.7649645    0.0000000    0.0000000       0.1024069    0.0000000    0.0000000
       0.0000000    9.7649645    0.0000000       0.0000000    0.1024069    0.0000000
       0.0000000    0.0000000    9.7649645       0.0000000    0.0000000    0.1024069


Old   direct lattice vectors                   reciprocal lattice vectors
       9.7649645    0.0000000    0.0000000       0.1024069    0.0000000    0.0000000
       0.0000000    9.7649645    0.0000000       0.0000000    0.1024069    0.0000000
       0.0000000    0.0000000    9.7649645       0.0000000    0.0000000    0.1024069


LATTICE: read from stdin
 bond charge predicted
 wavefunctions rotated
       N       E                     dE             d eps       ncg     rms          ort
 gam= 0.000 g(H,U,f)=  0.383E+03 0.116E+02 0.108E-01 ort(H,U,f) = 0.000E+00 0.000E+00 0.000E+00
SDA:   1     0.494042888097E+02    0.11938E+03    0.00000E+00    96   0.395E+03 0.000E+00
 gam= 0.000 trial= 0.210  step= 0.407 mean= 0.210
 gam= 0.293 g(H,U,f)=  0.941E+02 0.213E+02 0.413E-10 ort(H,U,f) = 0.281E+02-0.101E+02-0.266E-10
CGA:   2    -0.322929620551E+02   -0.81697E+02   -0.80259E+02    96   0.115E+03 0.180E+02
 gam= 0.293 trial= 0.220  step= 0.533 mean= 0.220
 gam= 0.644 g(H,U,f)=  0.710E+02 0.337E+01 0.868E-02 ort(H,U,f) =-0.333E+02-0.182E+00-0.393E-02
CGA:   3    -0.523605949282E+02   -0.20068E+02   -0.32171E+02    96   0.744E+02-0.335E+02
 gam= 0.644 trial= 0.236  step= 0.444 mean= 0.236
 gam= 0.000 g(H,U,f)=  0.236E+02 0.319E+01 0.202E+02 ort(H,U,f) =-0.125E+02-0.107E+01-0.257E+02
CGA:   4    -0.649747623851E+02   -0.12614E+02   -0.11722E+02    96   0.470E+02-0.392E+02
 gam= 0.000 trial= 0.246  step= 0.148 mean= 0.246
 gam= 1.005 g(H,U,f)=  0.158E+02 0.304E+01 0.283E+02 ort(H,U,f) = 0.114E+02-0.117E+01-0.214E+02
CGA:   5    -0.668753374279E+02   -0.19006E+01   -0.34717E+01    96   0.472E+02-0.112E+02
 gam= 1.005 trial= 0.241  step= 0.272 mean= 0.241
 gam= 0.000 g(H,U,f)=  0.560E+01 0.811E+01 0.245E+02 ort(H,U,f) =-0.574E+01-0.519E+01-0.143E+02
CGA:   6    -0.710572451618E+02   -0.41819E+01   -0.48885E+01    96   0.382E+02-0.252E+02
 gam= 0.000 trial= 0.243  step= 0.105 mean= 0.243
 gam= 0.000 g(H,U,f)=  0.473E+01 0.390E+01 0.292E+02 ort(H,U,f) = 0.914E+00-0.344E+01-0.245E+02
CGA:   7    -0.712910230106E+02   -0.23378E+00   -0.20085E+01    96   0.379E+02-0.270E+02
 gam= 0.000 trial= 0.236  step= 0.100 mean= 0.236
 gam= 0.000 g(H,U,f)=  0.292E+01 0.452E+01 0.275E+02 ort(H,U,f) =-0.597E+00-0.338E+01-0.284E+02
CGA:   8    -0.716042660524E+02   -0.31324E+00   -0.18911E+01    96   0.350E+02-0.324E+02
 gam= 0.000 trial= 0.229  step= 0.094 mean= 0.229
 gam= 0.000 g(H,U,f)=  0.244E+01 0.282E+01 0.242E+02 ort(H,U,f) =-0.704E+00-0.328E+01-0.273E+02
CGA:   9    -0.720101414507E+02   -0.40588E+00   -0.16415E+01    96   0.295E+02-0.312E+02
 gam= 0.000 trial= 0.222  step= 0.087 mean= 0.222
 gam= 0.000 g(H,U,f)=  0.127E+01 0.257E+01 0.159E+02 ort(H,U,f) =-0.377E+00-0.276E+01-0.203E+02
CGA:  10    -0.724289447334E+02   -0.41880E+00   -0.12769E+01    96   0.198E+02-0.235E+02
 gam= 0.000 trial= 0.216  step= 0.074 mean= 0.216
 gam= 0.000 g(H,U,f)=  0.786E+00 0.207E+01 0.443E+01 ort(H,U,f) = 0.706E-01-0.358E+01-0.772E+01
CGA:  11    -0.728352702555E+02   -0.40633E+00   -0.72797E+00    96   0.729E+01-0.112E+02
 gam= 0.000 trial= 0.208  step= 0.060 mean= 0.208
 gam= 0.165 g(H,U,f)=  0.425E+00 0.495E+00 0.285E+00 ort(H,U,f) = 0.390E+00-0.106E+01-0.847E+00
CGA:  12    -0.730152970251E+02   -0.18003E+00   -0.21916E+00    96   0.121E+01-0.152E+01
 gam= 0.165 trial= 0.201  step= 0.251 mean= 0.201
 gam= 1.479 g(H,U,f)=  0.296E+00 0.991E+00 0.496E+00 ort(H,U,f) = 0.332E+00-0.209E+00-0.113E+00
CGA:  13    -0.731353633452E+02   -0.12007E+00   -0.11974E+00    96   0.178E+01 0.990E-02
 gam= 1.479 trial= 0.204  step= 0.138 mean= 0.204
 gam= 0.512 g(H,U,f)=  0.167E+00 0.276E+00 0.470E+00 ort(H,U,f) = 0.353E+00-0.172E-01-0.343E+00
CGA:  14    -0.732595600157E+02   -0.12420E+00   -0.12417E+00    96   0.913E+00-0.699E-02
 gam= 0.512 trial= 0.200  step= 0.143 mean= 0.200
 gam= 0.729 g(H,U,f)=  0.137E+00 0.444E+00 0.853E-01 ort(H,U,f) = 0.231E+00-0.183E+00-0.513E-01
CGA:  15    -0.733247445681E+02   -0.65185E-01   -0.64936E-01    96   0.666E+00-0.352E-02
 gam= 0.729 trial= 0.197  step= 0.184 mean= 0.197
 gam= 0.943 g(H,U,f)=  0.876E-01 0.145E+00 0.396E+00 ort(H,U,f) = 0.146E+00 0.228E-01-0.178E+00
CGA:  16    -0.733859379821E+02   -0.61193E-01   -0.61049E-01    96   0.628E+00-0.920E-02
 gam= 0.943 trial= 0.197  step= 0.135 mean= 0.197
 gam= 0.412 g(H,U,f)=  0.463E-01 0.191E+00 0.218E-01 ort(H,U,f) = 0.112E+00-0.972E-01-0.155E-01
CGA:  17    -0.734277870973E+02   -0.41849E-01   -0.41781E-01    96   0.259E+00-0.111E-02
 gam= 0.412 trial= 0.194  step= 0.110 mean= 0.194
 gam= 0.454 g(H,U,f)=  0.282E-01 0.412E-01 0.479E-01 ort(H,U,f) = 0.535E-01-0.777E-02-0.448E-01
CGA:  18    -0.734421582878E+02   -0.14371E-01   -0.14271E-01    96   0.117E+00 0.927E-03
 gam= 0.454 trial= 0.189  step= 0.173 mean= 0.189
 gam= 1.041 g(H,U,f)=  0.200E-01 0.996E-01 0.268E-02 ort(H,U,f) = 0.328E-01-0.325E-01-0.432E-03
CGA:  19    -0.734523748119E+02   -0.10217E-01   -0.10213E-01    96   0.122E+00-0.136E-03
 gam= 1.041 trial= 0.189  step= 0.152 mean= 0.189
 gam= 0.552 g(H,U,f)=  0.105E-01 0.227E-01 0.342E-01 ort(H,U,f) = 0.215E-01-0.513E-03-0.207E-01
CGA:  20    -0.734616411939E+02   -0.92664E-02   -0.92668E-02    96   0.674E-01 0.351E-03
 gam= 0.552 trial= 0.187  step= 0.116 mean= 0.187
 gam= 0.494 g(H,U,f)=  0.872E-02 0.230E-01 0.158E-02 ort(H,U,f) = 0.149E-01-0.130E-01-0.186E-02
CGA:  21    -0.734655622753E+02   -0.39211E-02   -0.39184E-02    96   0.333E-01-0.191E-04
 gam= 0.494 trial= 0.183  step= 0.167 mean= 0.183
 gam= 0.965 g(H,U,f)=  0.537E-02 0.107E-01 0.161E-01 ort(H,U,f) = 0.898E-02-0.112E-02-0.777E-02
CGA:  22    -0.734683529795E+02   -0.27907E-02   -0.27912E-02    96   0.322E-01 0.921E-04
 gam= 0.965 trial= 0.182  step= 0.149 mean= 0.182
 gam= 0.561 g(H,U,f)=  0.314E-02 0.133E-01 0.159E-02 ort(H,U,f) = 0.824E-02-0.709E-02-0.125E-02
CGA:  23    -0.734707614247E+02   -0.24084E-02   -0.24074E-02    96   0.180E-01-0.109E-03
 gam= 0.561 trial= 0.181  step= 0.115 mean= 0.181
 gam= 0.456 g(H,U,f)=  0.210E-02 0.298E-02 0.314E-02 ort(H,U,f) = 0.443E-02-0.156E-02-0.284E-02
CGA:  24    -0.734717936177E+02   -0.10322E-02   -0.10326E-02    96   0.822E-02 0.298E-04
 gam= 0.456 trial= 0.178  step= 0.159 mean= 0.178
 gam= 0.944 g(H,U,f)=  0.143E-02 0.508E-02 0.125E-02 ort(H,U,f) = 0.282E-02-0.213E-02-0.770E-03
CGA:  25    -0.734724509520E+02   -0.65733E-03   -0.65657E-03    96   0.776E-02-0.845E-04
 gam= 0.944 trial= 0.177  step= 0.156 mean= 0.177
 gam= 0.612 g(H,U,f)=  0.993E-03 0.197E-02 0.179E-02 ort(H,U,f) = 0.215E-02-0.107E-02-0.107E-02
CGA:  26    -0.734730501560E+02   -0.59920E-03   -0.59912E-03    96   0.475E-02 0.978E-05
 gam= 0.612 trial= 0.176  step= 0.123 mean= 0.176
 gam= 0.581 g(H,U,f)=  0.692E-03 0.145E-02 0.622E-03 ort(H,U,f) = 0.151E-02-0.104E-02-0.506E-03
CGA:  27    -0.734733432814E+02   -0.29313E-03   -0.29218E-03    96   0.276E-02-0.346E-04
 gam= 0.581 trial= 0.173  step= 0.171 mean= 0.173
 gam= 0.922 g(H,U,f)=  0.516E-03 0.111E-02 0.923E-03 ort(H,U,f) = 0.988E-03-0.433E-03-0.504E-03
CGA:  28    -0.734735782738E+02   -0.23499E-03   -0.23503E-03    96   0.255E-02 0.506E-04
 gam= 0.922 trial= 0.173  step= 0.139 mean= 0.173
 gam= 0.556 g(H,U,f)=  0.321E-03 0.764E-03 0.330E-03 ort(H,U,f) = 0.781E-03-0.563E-03-0.216E-03
CGA:  29    -0.734737590590E+02   -0.18079E-03   -0.18085E-03    96   0.142E-02 0.155E-05
 gam= 0.556 trial= 0.171  step= 0.127 mean= 0.171
 gam= 0.600 g(H,U,f)=  0.256E-03 0.328E-03 0.266E-03 ort(H,U,f) = 0.521E-03-0.264E-03-0.221E-03
CGA:  30    -0.734738483375E+02   -0.89279E-04   -0.90069E-04    96   0.850E-03 0.359E-04
 gam= 0.600 trial= 0.169  step= 0.184 mean= 0.169
 final diagonalization
FORCES:
    -0.4362412    -0.4639039    -1.5269170
    -0.1129981     0.4298195     0.5521199
    -0.6654998     0.8762646    -0.3902516
    -0.0345744     0.3872594     0.8510234
    -0.7498844    -0.5196650    -0.6071405
     0.1412821    -0.3265121     1.0977060
    -0.4968894     0.8083911     0.6555815
     0.2377851    -0.1742850    -0.3602096
     1.2028774    -0.6420971    -0.2905667
     0.5578835     0.1825265     0.7179302
     0.3585075     0.6790488     0.5855745
     0.4351208    -0.9035910    -0.1805612
     0.4098800    -0.0848656     0.4305250
     0.0107153     0.6788959     0.0949076
     0.9683045     0.0073262    -0.6835299
     0.4790234     0.5496233     0.3349763
    -0.8197967    -0.1281627     0.0399485
     0.3764003     0.1297976     0.9244552
    -0.2838866    -0.5322595    -0.1864308
    -0.1046359    -0.2989933    -0.4604105
    -0.9091963     0.8254986     0.2123584
    -0.2186856     0.0085545    -0.2314963
     0.1737081    -0.0331867    -0.0360774
    -0.3421106    -0.6555334    -0.7915346
    -0.7813131    -0.5053115    -0.5079153
     0.1430341     0.2591615     0.2111097
     0.6575164    -0.2728072    -0.0665426
    -0.1963267    -0.2809936    -0.3886321
   4 F= -.73473848E+02 E0= -.73445659E+02  d E =-.734738E+02
POSITIONS: reading from stdin
Attemping to close VASP cleanly
Inputting positions...
New scaled positions
     0.6787503     0.2108937     0.1319652
     0.1671506     0.0310208     0.5052832
     0.6612196     0.7484918     0.0142038
     0.8164600     0.0470469     0.4909624
     0.7845533     0.5175478     0.7439905
     0.5202912     0.0114711     0.6238417
     0.5115794     0.5417129     0.2755427
     0.9777296     0.7929823     0.2451250
     0.2025801     0.5006296     0.8509465
     0.2373270     0.8747364     0.8163636
     0.3857273     0.2248694     0.3405359
     0.0600227     0.6542655     0.5488519
     0.9228883     0.4743532     0.1103802
     0.0410106     0.2107867     0.2427313
     0.7488712     0.7002042     0.4602247
     0.5965848     0.9606167     0.2712427
     0.3243580     0.7276171     0.0680394
     0.5253504     0.4218165     0.9495914
     0.2600462     0.1791056     0.7789885
     0.0215164     0.3286286     0.5571534
     0.3285689     0.7764180     0.4546520
     0.5046951     0.7206846     0.7616694
     0.5175437     0.0072463     0.9379035
     0.6716561     0.3283343     0.4811283
     0.1637794     0.4883211     0.2794556
     0.7624501     0.2071662     0.8033558
     0.8469353     0.8595753     0.7539920
     0.3594328     0.4405094     0.5745171
Old scaled positions
     0.6928950     0.2272467     0.1609734
     0.1628567     0.0176045     0.5022879
     0.6898237     0.7216183     0.0337439
     0.8271933     0.0424653     0.4646348
     0.8096468     0.5308576     0.7650117
     0.5129143     0.0263353     0.5982053
     0.5310292     0.5180141     0.2564797
     0.9715242     0.8006835     0.2537161
     0.1676214     0.5246197     0.8541645
     0.2121619     0.8629179     0.7946707
     0.3871632     0.2152949     0.3334734
     0.0495283     0.6756611     0.5627671
     0.9097243     0.4799260     0.0941189
     0.0367510     0.1945467     0.2406828
     0.7143996     0.7011370     0.4757657
     0.5744438     0.9311368     0.2679495
     0.3448042     0.7321269     0.0795680
     0.5118673     0.4182543     0.9217793
     0.2720029     0.1985297     0.7820344
     0.0251703     0.3309410     0.5671593
     0.3602201     0.7537930     0.4448949
     0.5093818     0.7120743     0.7497040
     0.5131747     0.0058549     0.9394485
     0.6788881     0.3440128     0.5010479
     0.1850241     0.5032169     0.2931406
     0.7582030     0.1989331     0.7979493
     0.8254934     0.8693934     0.7551318
     0.3651717     0.4498561     0.5821346
POSITIONS: read from stdin
LATTICE: reading from stdin
New   direct lattice vectors                   reciprocal lattice vectors
       9.7649645    0.0000000    0.0000000       0.1024069    0.0000000    0.0000000
       0.0000000    9.7649645    0.0000000       0.0000000    0.1024069    0.0000000
       0.0000000    0.0000000    9.7649645       0.0000000    0.0000000    0.1024069


Old   direct lattice vectors                   reciprocal lattice vectors
       9.7649645    0.0000000    0.0000000       0.1024069    0.0000000    0.0000000
       0.0000000    9.7649645    0.0000000       0.0000000    0.1024069    0.0000000
       0.0000000    0.0000000    9.7649645       0.0000000    0.0000000    0.1024069


LATTICE: read from stdin
 bond charge predicted
 wavefunctions rotated
       N       E                     dE             d eps       ncg     rms          ort
 gam= 0.000 g(H,U,f)=  0.121E+00 0.114E+00 0.227E+01 ort(H,U,f) = 0.000E+00 0.000E+00 0.000E+00
SDA:   1    -0.734194633107E+02    0.54296E-01    0.00000E+00    96   0.251E+01 0.000E+00
 gam= 0.000 trial= 0.170  step= 0.044 mean= 0.170
 hard stop encountered!  aborting job ...
FORCES:
    -0.1449105    -0.3876326    -1.3748820
    -0.3219081     0.5001958     0.2703290
    -0.4822839     0.8385260    -0.1956285
     0.2277620     0.3809217     0.5738680
    -0.4516142    -0.4016496    -0.4058858
    -0.0061542    -0.4353385     0.9789112
    -0.4501159     0.8723856     0.4549807
     0.2323621    -0.1615915    -0.4198360
     0.9033778    -0.6054641    -0.0059147
     0.3795222     0.2222195     0.8131038
     0.0186187     0.5702025     0.4287470
     0.3229524    -0.7928736    -0.3847170
     0.4635865    -0.1536820     0.5299548
    -0.1099994     0.6863252    -0.0230116
     0.3448540    -0.0792416    -0.0986003
     0.2078509     0.5513127     0.4629208
    -0.4293942    -0.1353896    -0.1763523
     0.1711594    -0.0443143     0.1643277
     0.3445037    -0.2096227    -0.2652983
    -0.1846937    -0.0275214     0.2326024
    -0.3549947     0.4608738     0.5550446
    -0.2039014    -0.3052720    -0.5922242
     0.1548222    -0.0069810    -0.0265249
    -0.3680574    -0.6328747    -0.7779771
    -0.8082389    -0.4804714    -0.5028917
     0.1163614     0.2822030     0.2203122
     0.6360185    -0.2471797    -0.0582168
    -0.2074852    -0.2580655    -0.3771411
   5 F= -.73419463E+02 E0= -.73391277E+02  d E =-.734195E+02
POSITIONS: reading from stdin
Inputting positions...
New scaled positions
     0.6787503     0.2108937     0.1319652
     0.1671506     0.0310208     0.5052832
     0.6612196     0.7484918     0.0142038
     0.8164600     0.0470469     0.4909624
     0.7845533     0.5175478     0.7439905
     0.5202912     0.0114711     0.6238417
     0.5115794     0.5417129     0.2755427
     0.9777296     0.7929823     0.2451250
     0.2025801     0.5006296     0.8509465
     0.2373270     0.8747364     0.8163636
     0.3857273     0.2248694     0.3405359
     0.0600227     0.6542655     0.5488519
     0.9228883     0.4743532     0.1103802
     0.0410106     0.2107867     0.2427313
     0.7488712     0.7002042     0.4602247
     0.5965848     0.9606167     0.2712427
     0.3243580     0.7276171     0.0680394
     0.5253504     0.4218165     0.9495914
     0.2600462     0.1791056     0.7789885
     0.0215164     0.3286286     0.5571534
     0.3285689     0.7764180     0.4546520
     0.5046951     0.7206846     0.7616694
     0.5175437     0.0072463     0.9379035
     0.6716561     0.3283343     0.4811283
     0.1637794     0.4883211     0.2794556
     0.7624501     0.2071662     0.8033558
     0.8469353     0.8595753     0.7539920
     0.3594328     0.4405094     0.5745171
Old scaled positions
     0.6928950     0.2272467     0.1609734
     0.1628567     0.0176045     0.5022879
     0.6898237     0.7216183     0.0337439
     0.8271933     0.0424653     0.4646348
     0.8096468     0.5308576     0.7650117
     0.5129143     0.0263353     0.5982053
     0.5310292     0.5180141     0.2564797
     0.9715242     0.8006835     0.2537161
     0.1676214     0.5246197     0.8541645
     0.2121619     0.8629179     0.7946707
     0.3871632     0.2152949     0.3334734
     0.0495283     0.6756611     0.5627671
     0.9097243     0.4799260     0.0941189
     0.0367510     0.1945467     0.2406828
     0.7143996     0.7011370     0.4757657
     0.5744438     0.9311368     0.2679495
     0.3448042     0.7321269     0.0795680
     0.5118673     0.4182543     0.9217793
     0.2720029     0.1985297     0.7820344
     0.0251703     0.3309410     0.5671593
     0.3602201     0.7537930     0.4448949
     0.5093818     0.7120743     0.7497040
     0.5131747     0.0058549     0.9394485
     0.6788881     0.3440128     0.5010479
     0.1850241     0.5032169     0.2931406
     0.7582030     0.1989331     0.7979493
     0.8254934     0.8693934     0.7551318
     0.3651717     0.4498561     0.5821346
POSITIONS: read from stdin
LATTICE: reading from stdin
New   direct lattice vectors                   reciprocal lattice vectors
       9.7649645    0.0000000    0.0000000       0.1024069    0.0000000    0.0000000
       0.0000000    9.7649645    0.0000000       0.0000000    0.1024069    0.0000000
       0.0000000    0.0000000    9.7649645       0.0000000    0.0000000    0.1024069


Old   direct lattice vectors                   reciprocal lattice vectors
       9.7649645    0.0000000    0.0000000       0.1024069    0.0000000    0.0000000
       0.0000000    9.7649645    0.0000000       0.0000000    0.1024069    0.0000000
       0.0000000    0.0000000    9.7649645       0.0000000    0.0000000    0.1024069


LATTICE: read from stdin
 writing wavefunctions
 augmentation electrons   16.4805666244349     
 soft         electrons   143.525930101413     
 total        electrons   160.006496725848     
 deleting file STOPCAR
VASP terminated normally
VASP exited with code 0.