unknown system                          
           1
     9.764965    0.000000    0.000000
     0.000000    9.764965    0.000000
     0.000000    0.000000    9.764965
   Cl   K    Na
    14     8     6
Direct configuration=     1
   0.69289504  0.22724673  0.16097336
   0.16285668  0.01760451  0.50228792
   0.68982366  0.72161825  0.03374392
   0.82719332  0.04246535  0.46463484
   0.80964676  0.53085758  0.76501170
   0.51291425  0.02633526  0.59820533
   0.53102920  0.51801406  0.25647966
   0.97152417  0.80068351  0.25371614
   0.16762138  0.52461965  0.85416446
   0.21216195  0.86291793  0.79467065
   0.38716325  0.21529488  0.33347342
   0.04952826  0.67566114  0.56276709
   0.90972431  0.47992597  0.09411890
   0.03675100  0.19454670  0.24068277
   0.71439964  0.70113703  0.47576567
   0.57444378  0.93113684  0.26794953
   0.34480418  0.73212686  0.07956797
   0.51186727  0.41825435  0.92177933
   0.27200286  0.19852967  0.78203436
   0.02517027  0.33094103  0.56715927
   0.36022007  0.75379305  0.44489489
   0.50938184  0.71207434  0.74970396
   0.51317466  0.00585487  0.93944845
   0.67888809  0.34401276  0.50104790
   0.18502413  0.50321694  0.29314060
   0.75820300  0.19893310  0.79794929
   0.82549344  0.86939336  0.75513175
   0.36517172  0.44985614  0.58213456
unknown system                          
           1
     9.764965    0.000000    0.000000
     0.000000    9.764965    0.000000
     0.000000    0.000000    9.764965
   Cl   K    Na
    14     8     6
Direct configuration=     2
   0.69289504  0.22724673  0.16097336
   0.16285668  0.01760451  0.50228792
   0.68982366  0.72161825  0.03374392
   0.82719332  0.04246535  0.46463484
   0.80964676  0.53085758  0.76501170
   0.51291425  0.02633526  0.59820533
   0.53102920  0.51801406  0.25647966
   0.97152417  0.80068351  0.25371614
   0.16762138  0.52461965  0.85416446
   0.21216195  0.86291793  0.79467065
   0.38716325  0.21529488  0.33347342
   0.04952826  0.67566114  0.56276709
   0.90972431  0.47992597  0.09411890
   0.03675100  0.19454670  0.24068277
   0.71439964  0.70113703  0.47576567
   0.57444378  0.93113684  0.26794953
   0.34480418  0.73212686  0.07956797
   0.51186727  0.41825435  0.92177933
   0.27200286  0.19852967  0.78203436
   0.02517027  0.33094103  0.56715927
   0.36022007  0.75379305  0.44489489
   0.50938184  0.71207434  0.74970396
   0.51317466  0.00585487  0.93944845
   0.67888809  0.34401276  0.50104790
   0.18502413  0.50321694  0.29314060
   0.75820300  0.19893310  0.79794929
   0.82549344  0.86939336  0.75513175
   0.36517172  0.44985614  0.58213456
unknown system                          
           1
     9.764965    0.000000    0.000000
     0.000000    9.764965    0.000000
     0.000000    0.000000    9.764965
   Cl   K    Na
    14     8     6
Direct configuration=     3
   0.69289504  0.22724673  0.16097336
   0.16285668  0.01760451  0.50228792
   0.68982366  0.72161825  0.03374392
   0.82719332  0.04246535  0.46463484
   0.80964676  0.53085758  0.76501170
   0.51291425  0.02633526  0.59820533
   0.53102920  0.51801406  0.25647966
   0.97152417  0.80068351  0.25371614
   0.16762138  0.52461965  0.85416446
   0.21216195  0.86291793  0.79467065
   0.38716325  0.21529488  0.33347342
   0.04952826  0.67566114  0.56276709
   0.90972431  0.47992597  0.09411890
   0.03675100  0.19454670  0.24068277
   0.71439964  0.70113703  0.47576567
   0.57444378  0.93113684  0.26794953
   0.34480418  0.73212686  0.07956797
   0.51186727  0.41825435  0.92177933
   0.27200286  0.19852967  0.78203436
   0.02517027  0.33094103  0.56715927
   0.36022007  0.75379305  0.44489489
   0.50938184  0.71207434  0.74970396
   0.51317466  0.00585487  0.93944845
   0.67888809  0.34401276  0.50104790
   0.18502413  0.50321694  0.29314060
   0.75820300  0.19893310  0.79794929
   0.82549344  0.86939336  0.75513175
   0.36517172  0.44985614  0.58213456
unknown system                          
           1
     9.764965    0.000000    0.000000
     0.000000    9.764965    0.000000
     0.000000    0.000000    9.764965
   Cl   K    Na
    14     8     6
Direct configuration=     4
   0.69289504  0.22724673  0.16097336
   0.16285668  0.01760451  0.50228792
   0.68982366  0.72161825  0.03374392
   0.82719332  0.04246535  0.46463484
   0.80964676  0.53085758  0.76501170
   0.51291425  0.02633526  0.59820533
   0.53102920  0.51801406  0.25647966
   0.97152417  0.80068351  0.25371614
   0.16762138  0.52461965  0.85416446
   0.21216195  0.86291793  0.79467065
   0.38716325  0.21529488  0.33347342
   0.04952826  0.67566114  0.56276709
   0.90972431  0.47992597  0.09411890
   0.03675100  0.19454670  0.24068277
   0.71439964  0.70113703  0.47576567
   0.57444378  0.93113684  0.26794953
   0.34480418  0.73212686  0.07956797
   0.51186727  0.41825435  0.92177933
   0.27200286  0.19852967  0.78203436
   0.02517027  0.33094103  0.56715927
   0.36022007  0.75379305  0.44489489
   0.50938184  0.71207434  0.74970396
   0.51317466  0.00585487  0.93944845
   0.67888809  0.34401276  0.50104790
   0.18502413  0.50321694  0.29314060
   0.75820300  0.19893310  0.79794929
   0.82549344  0.86939336  0.75513175
   0.36517172  0.44985614  0.58213456
unknown system                          
           1
     9.764965    0.000000    0.000000
     0.000000    9.764965    0.000000
     0.000000    0.000000    9.764965
   Cl   K    Na
    14     8     6
Direct configuration=     5
   0.69289504  0.22724673  0.16097336
   0.16285668  0.01760451  0.50228792
   0.68982366  0.72161825  0.03374392
   0.82719332  0.04246535  0.46463484
   0.80964676  0.53085758  0.76501170
   0.51291425  0.02633526  0.59820533
   0.53102920  0.51801406  0.25647966
   0.97152417  0.80068351  0.25371614
   0.16762138  0.52461965  0.85416446
   0.21216195  0.86291793  0.79467065
   0.38716325  0.21529488  0.33347342
   0.04952826  0.67566114  0.56276709
   0.90972431  0.47992597  0.09411890
   0.03675100  0.19454670  0.24068277
   0.71439964  0.70113703  0.47576567
   0.57444378  0.93113684  0.26794953
   0.34480418  0.73212686  0.07956797
   0.51186727  0.41825435  0.92177933
   0.27200286  0.19852967  0.78203436
   0.02517027  0.33094103  0.56715927
   0.36022007  0.75379305  0.44489489
   0.50938184  0.71207434  0.74970396
   0.51317466  0.00585487  0.93944845
   0.67888809  0.34401276  0.50104790
   0.18502413  0.50321694  0.29314060
   0.75820300  0.19893310  0.79794929
   0.82549344  0.86939336  0.75513175
   0.36517172  0.44985614  0.58213456
