168
Lattice="17.021838562107188 0.0 0.0 0.0 17.021838562107188 0.0 0.0 0.0 17.021838562107188" Properties=species:S:1:pos:R:3:forces:R:3:stresses:R:6:energies:R:1 energy=-1159.3732240054983 stress="0.1027685457712506 0.0046399002396348985 -0.0029868627425809363 0.0046399002396348985 0.11046973277382956 0.004419449735147327 -0.0029868627425809363 0.004419449735147327 0.1167573477748348" free_energy=-1159.3732240054983 pbc="T T T"
Cl      -0.63125909      13.76763764       7.96414864      -0.07114648       0.03367605       0.52574937       0.00065561       0.00101938       0.00139301       0.00003270      -0.00022958       0.00045623      -6.74783057
Cl       4.98269213      11.43571208      12.71053113       0.17911937      -0.03886888      -0.19257476       0.00053088       0.00128448       0.00084884       0.00030868      -0.00007719      -0.00004528      -6.79631044
Cl      -0.89795290      10.35035645      11.07848543      -0.42393988      -0.19802026       0.18290790       0.00052622       0.00100876       0.00033411      -0.00059361      -0.00008569       0.00032754      -6.80529004
Cl       1.58688500      11.37091268       7.66972247      -0.05307265       0.25868544       0.27664359       0.00075212       0.00066106       0.00071534       0.00003584      -0.00005425      -0.00018167      -6.93632400
Cl       0.22991344      13.68302464      11.24448126       0.20112665      -0.53046565       0.27998073       0.00070309       0.00105622       0.00136936      -0.00012610       0.00014912       0.00011268      -6.59742847
Cl       2.03003611      12.54828628      13.98316416       0.23710720      -0.07891846       0.05046316       0.00127188       0.00103895       0.00128208      -0.00011551       0.00013824      -0.00012606      -6.58020104
Cl       5.49524232      15.55915964       9.18959237      -0.02550680      -0.16525380       0.29852701       0.00055420       0.00116662       0.00019949       0.00000203      -0.00037769       0.00033720      -6.89818799
Cl      11.44025699      17.57252078       6.22651597      -0.29460438      -0.05199504       0.19166947       0.00030442       0.00082124       0.00126740       0.00011041       0.00002713       0.00040763      -7.07273742
Cl      10.77588229      14.46926450       7.24264142      -0.10976593      -0.16110018       0.01577129       0.00045739       0.00053372      -0.00017742      -0.00007975      -0.00006401      -0.00020056      -7.14203953
Cl      12.80504350      10.31829282      10.38866490      -0.00719099      -0.21027331      -0.04223928      -0.00020882       0.00034516       0.00041651       0.00034287       0.00009620       0.00057815      -6.75721489
Cl      14.01697098       9.48104564       5.09938385       0.13883207      -0.11165949      -0.02571784      -0.00019314       0.00066181       0.00053349      -0.00038020      -0.00031209      -0.00010990      -6.97949300
Cl      14.96459288      10.63684941       7.99342577       0.13490001       0.22575636      -0.01551455       0.00083939       0.00103277       0.00016620       0.00034320      -0.00033888       0.00040889      -7.10828016
Cl      14.76288590      15.91495197      10.82828558      -0.05089246       0.15870752      -0.05406718       0.00087409       0.00112453       0.00125248       0.00028170      -0.00017948      -0.00001134      -7.20372305
Cl       9.73504981      10.97074850      10.07216664      -0.21897409       0.10097162       0.09840308      -0.00015999       0.00054866       0.00040734       0.00002572      -0.00001098       0.00013202      -6.56544460
Cl       7.06328999      15.53828267      11.97028989       0.05273907       0.08920563       0.06682509       0.00084837       0.00115902      -0.00000872      -0.00000607      -0.00014064       0.00008768      -6.86426737
Cl       4.80491450      17.74574476      13.50075591       0.36103630       0.13889041      -0.09558337       0.00024731       0.00075814       0.00054313      -0.00051627      -0.00032036      -0.00007235      -6.71327867
Cl      10.76465654      15.23982260      18.44303146       0.06717235      -0.16180528      -0.28624706       0.00093965       0.00077315       0.00097091       0.00018755      -0.00026271      -0.00013871      -6.74602494
Cl       9.43572906      14.19369872      10.22229467       0.06229684      -0.24824286       0.13070935       0.00081587       0.00055982       0.00091117      -0.00000346       0.00014059       0.00006571      -6.91712394
Cl      12.56525679      15.07476045      15.55030044      -0.00723782      -0.18511654      -0.07522720       0.00081283      -0.00014167       0.00073220       0.00036160       0.00013993       0.00015932      -6.66638174
Cl       6.56348330      12.45475185       9.88868735       0.04829949      -0.10347389      -0.06587457       0.00111106       0.00103404       0.00096089       0.00033436      -0.00013524       0.00000201      -7.24397050
Cl       4.39643072      16.37713391      -0.10679761      -0.03032171      -0.24617094       0.25607294       0.00122472       0.00086642       0.00153318      -0.00004733      -0.00015199      -0.00015355      -6.25532561
Cl       3.13561272      14.14270951       4.34097678      -0.09580036       0.31592984      -0.16148512       0.00064744       0.00029163       0.00108351      -0.00019371      -0.00018205      -0.00064072      -6.79713185
Cl       2.45099185      15.02222355       8.14442434      -0.66709311       0.32524644      -0.16186262       0.00032251       0.00102891       0.00122701       0.00025525      -0.00013221       0.00034569      -6.65451900
Cl       8.44261022      12.89550009       1.88621623      -0.10085898       0.05958200       0.03738354       0.00108911       0.00100819       0.00041119       0.00021505      -0.00026241      -0.00012467      -7.15425588
Cl       8.97862983      15.63956528       4.58324334       0.17066319      -0.01012896       0.16906438       0.00087691       0.00037979       0.00120641       0.00072204      -0.00007513       0.00047024      -6.45060632
Cl       7.54768255      14.04435325       7.08798700      -0.01076653      -0.03593982      -0.03774177       0.00049261       0.00097567       0.00099473       0.00009297       0.00033539      -0.00029698      -6.97838346
Cl       3.09275023      17.23776379       3.03796538       0.30516607       0.01797552      -0.05641486       0.00073406       0.00067362       0.00068502      -0.00008700      -0.00023315      -0.00020699      -6.43434143
Cl       5.92382570      15.48440041       2.99698880       0.26053539       0.14130099       0.10386026       0.00078289       0.00031919       0.00071325      -0.00010957       0.00004735      -0.00035085      -6.45390822
Cl       0.28757778      12.66092753       4.83465180      -0.26241572       0.25951865       0.34441202       0.00022490       0.00091873       0.00115951      -0.00001773      -0.00022224       0.00009278      -6.78735393
Cl      10.11938717       3.03422543      14.62115192      -0.12255638       0.33911476      -0.26851298       0.00029862       0.00127190       0.00066841       0.00049848      -0.00031960      -0.00017654      -7.11600597
Cl      13.03437945       0.61112872      13.61249349       0.29414608      -0.19603639      -0.12429615       0.00131268       0.00026139       0.00098558       0.00038072       0.00006316      -0.00034755      -6.72495272
Cl      15.07230792       0.31398321      16.61596123      -0.02957090       0.04647830      -0.09081553       0.00169447       0.00107028       0.00150256      -0.00006792       0.00017434      -0.00008020      -6.98382944
Cl       9.92059998       0.67611708      11.94094957       0.21917562       0.14318874      -0.04692145       0.00118387       0.00160243       0.00113999      -0.00006950       0.00038692       0.00026497      -7.14129637
Cl       8.58018320       6.22050107      14.18847715       0.14991091      -0.16288146      -0.24814788       0.00027871       0.00029858       0.00058037      -0.00007217      -0.00038213      -0.00040838      -7.10706913
Cl      13.24518523       3.50850712      15.18882174       0.22889873       0.04543358      -0.30186570      -0.00008035       0.00075800       0.00112736       0.00008822      -0.00060135      -0.00010179      -7.04122176
Cl      11.74889119       5.81501127      13.43767818      -0.19459081       0.26122967      -0.51546068       0.00017378       0.00073594       0.00090221       0.00026436      -0.00002068       0.00038129      -7.12165393
Cl      10.84220449       6.85887127      16.45914113       0.15075656      -0.31657271      -0.04969118       0.00047634       0.00044028       0.00038231       0.00038304      -0.00003214      -0.00056704      -7.11057422
Cl      15.77108768       2.31853714      12.69489377       0.12196806      -0.17594648       0.25029583       0.00091333       0.00106581       0.00148331       0.00003792       0.00013209       0.00019891      -6.89167094
Cl      14.22500589       6.66087558      15.70419926       0.16697475      -0.16361564      -0.08159378       0.00117377       0.00091954       0.00037968      -0.00009621       0.00018032      -0.00022800      -7.16217812
Cl      17.45746805       6.76478440      16.87159996       0.07962347       0.10461142       0.08982702       0.00105858       0.00066177       0.00123032       0.00037603      -0.00009916       0.00037775      -7.21279222
Cl      16.03814603      11.05988298      14.25620169       0.15116702       0.09197195       0.18214421       0.00050597       0.00004435      -0.00014678      -0.00009559      -0.00038795       0.00064923      -6.51465324
Cl      13.88717176      12.25007473      16.36380110       0.14841710      -0.14466594       0.45651845      -0.00047599      -0.00053941       0.00103825      -0.00058683      -0.00011471      -0.00019346      -6.46894510
Cl      13.62810311       8.64407670      13.02260580       0.18025979       0.09622636      -0.21597812       0.00119228       0.00118406       0.00013419       0.00005838       0.00013056       0.00033116      -7.04596118
Cl       9.35168502       9.34094012      14.64375405      -0.16947188       0.17559233       0.06490682       0.00063203       0.00041833       0.00061639      -0.00027118       0.00015974       0.00009437      -7.06973512
Cl       5.65327883       9.48465750       5.99039937       0.05689140       0.26483999      -0.51599790      -0.00032332       0.00090238       0.00109445       0.00006813      -0.00042933      -0.00025498      -6.92778982
Cl       8.33658257       7.59409562       5.59425886       0.26798241       0.08861148       0.29140178       0.00054400       0.00003227       0.00024184       0.00049864      -0.00033896      -0.00013199      -6.77316155
Cl       4.96787698      10.22794763       2.09591551      -0.26078628      -0.09188580      -0.14811392       0.00070618       0.00064426       0.00069760       0.00014214      -0.00018235      -0.00001232      -7.08025376
Cl       5.83938891       6.94755191       8.20722284       0.19058968       0.20902919      -0.01053253       0.00122876       0.00112746       0.00140734       0.00017626      -0.00001181       0.00004550      -7.26738400
Cl       8.65393651       2.15081974       6.14375766      -0.05340582       0.18378027       0.36879400       0.00056573       0.00058431       0.00059755       0.00005939      -0.00003808       0.00037318      -6.75071642
Cl       4.56869517      12.67692676       7.20564026       0.07860786      -0.33097942      -0.06178479       0.00039334       0.00131257       0.00076584      -0.00004713       0.00028067      -0.00014972      -7.23926794
Cl       7.05498505       9.26125219      10.72956868      -0.19140940      -0.16398532       0.42412330       0.00049503       0.00081916       0.00080879       0.00028630       0.00012570       0.00005059      -6.87331078
Cl       9.54315383       4.03249119      11.58177090      -0.20783030       0.16175796       0.07374343       0.00035766       0.00104703       0.00031762       0.00022498      -0.00006756       0.00028074      -7.12958404
Cl      11.74987919      -0.45567695       9.50433867      -0.04484088      -0.37071779       0.62693203      -0.00004582       0.00017830       0.00013864      -0.00003435       0.00023979      -0.00007272      -7.05171099
Cl       8.19943189      11.96005188      12.78015066      -0.42570594       0.27048178      -0.11595521       0.00046239       0.00135094       0.00067539      -0.00018106       0.00000933      -0.00004775      -6.95365655
Cl       6.92378587       5.98309796      11.36402623      -0.34011999       0.13363156       0.07553585       0.00068429       0.00094006       0.00094069      -0.00013153      -0.00017942       0.00065330      -6.99531532
Cl      11.77810964       5.71290749       9.78696122       0.02898046      -0.17251713      -0.00001568       0.00135295       0.00072633       0.00127243       0.00049596       0.00013122      -0.00017315      -7.14269955
Cl       6.15953762       8.44178747      13.74070977      -0.07589892       0.21808915      -0.30266703       0.00102496       0.00092059       0.00064801       0.00027068       0.00023390       0.00021089      -7.00191306
Cl       7.00658443       3.47219011      13.67551655       0.05365484       0.16500409      -0.09288686      -0.00007202      -0.00021940       0.00037457      -0.00011099       0.00007522       0.00004287      -6.79473068
Cl       5.23585037       2.45164564      16.21361555      -0.74344866      -0.21550587      -0.21071261       0.00081242       0.00044485       0.00032452      -0.00016544       0.00001767      -0.00001876      -6.38100517
Cl       1.86509353       1.86803776      14.26688731       0.11849316       0.23863483      -0.32515763       0.00076277       0.00023943       0.00063240      -0.00012118       0.00018831       0.00011443      -6.70304074
Cl       5.43604777       5.71269751      15.47308649       0.17208404      -0.21753720       0.13108343       0.00047525       0.00054372       0.00100596       0.00008370       0.00000466       0.00033249      -6.94647370
Cl       8.33918360       2.07409183      17.21241865       0.11594274      -0.48299947       0.55068696       0.00041780       0.00056455      -0.00000608      -0.00009161       0.00006890      -0.00031134      -6.42155538
Cl       0.98816194       4.94588417      13.74288855      -0.17060694       0.24747925      -0.48341088       0.00022131      -0.00014441      -0.00012416       0.00101786       0.00002403       0.00017627      -6.72511528
Cl       2.97609218       7.52266614      14.35017907      -0.18358664      -0.14360331      -0.01545308       0.00057045       0.00099854       0.00078594       0.00008015      -0.00016531       0.00029438      -7.09688189
Cl       0.30527966       8.57942884       8.64104478      -0.10099269      -0.17251862       0.26320547      -0.00033344      -0.00043038      -0.00025775       0.00043910       0.00067864       0.00042165      -6.38605910
Cl       4.33432076       4.22616066       9.43891165       0.11088682       0.01100230      -0.15809538       0.00152921       0.00107959       0.00112011      -0.00016931       0.00017126      -0.00004634      -7.19274760
Cl       1.45742989       9.90630257      16.09037578      -0.25594931       0.50099687       0.05069270      -0.00036752       0.00096402       0.00075625       0.00018673       0.00017244      -0.00017643      -6.89606721
Cl       0.61401496       6.61256606      11.09788161      -0.09387142       0.33652960       0.02534167       0.00103394       0.00070491      -0.00084483       0.00059682       0.00018401       0.00012225      -6.76681894
Cl       4.56146517      10.46080615      15.83235942      -0.22555042       0.19278606      -0.04195427      -0.00013190       0.00122562       0.00074370       0.00002727       0.00011914      -0.00020158      -6.66297112
Cl      10.17125143       5.10274139       6.61626441       0.08710578      -0.01395578      -0.00626058       0.00063014       0.00088829       0.00123315       0.00034484       0.00015630       0.00014949      -7.24152766
Cl      17.15550117       0.23703938       8.80131031      -0.33757214      -0.20237085       0.02259649       0.00091968       0.00118149       0.00089562       0.00015755       0.00027459       0.00041796      -6.83181737
Cl      12.23991522       8.10792428       7.61967801       0.15493408      -0.02919008      -0.09860447       0.00123404       0.00076042       0.00079797       0.00031197       0.00013565       0.00014537      -7.10521856
Cl      15.27133872       6.71254013       6.79322432       0.15240814       0.28678041       0.07567890       0.00115639       0.00143255       0.00137476      -0.00024723       0.00005414      -0.00018474      -7.66105642
Cl      10.79553888       2.59715646       8.82329333      -0.29945165       0.01457407       0.14291067       0.00113867       0.00070157       0.00103134      -0.00005722       0.00000413       0.00017244      -7.37911164
Cl      11.97797711       3.18749349       4.09795075       0.03971227       0.34227518      -0.11289452       0.00076341       0.00110038       0.00132651      -0.00015072      -0.00033857       0.00007300      -7.06804010
Cl      15.46165208       9.36797933       0.11443396      -0.06186770       0.14046310      -0.12821163       0.00032368       0.00067686       0.00092032      -0.00016238       0.00017416       0.00009781      -7.19050660
Cl      15.26745020      11.61139034       2.51107428       0.09492885      -0.40915299       0.16824111       0.00132838       0.00143881       0.00123400      -0.00030437      -0.00026398      -0.00004288      -7.02845914
Cl      14.14828495       3.02273821       1.31269682      -0.20027038      -0.18277487      -0.04830807       0.00027525      -0.00032847       0.00065869       0.00025065       0.00009156       0.00013191      -6.91599616
Cl      13.04130954       0.36603332       2.66678454      -0.27092117       0.53572979      -0.18334272       0.00073449      -0.00038653       0.00062083       0.00032854       0.00005774      -0.00038428      -6.68962050
Cl      13.12939928       6.01384859       1.65038557      -0.02082606      -0.28871193       0.14967249       0.00016316      -0.00065672      -0.00000971      -0.00057608      -0.00026601      -0.00043826      -6.46325466
Cl      15.59759159       7.48571333       2.99400332       0.17732426       0.03018411       0.11696431       0.00013711       0.00088632       0.00111971      -0.00006690      -0.00048280      -0.00032011      -7.05374456
Cl      10.96158122       3.85927292       0.84809848       0.16187430      -0.12540427      -0.10217772      -0.00014710      -0.00008042       0.00097314      -0.00026545      -0.00019192      -0.00039742      -6.80197527
Cl       4.82880580      -0.77913888       6.06905057       0.24966807      -0.20586956      -0.13646016       0.00133730       0.00076638       0.00043154      -0.00026803      -0.00021819      -0.00054503      -6.71517861
Cl       1.21289211       3.19188683      10.61462837       0.02741025       0.02066994       0.26851388       0.00108540       0.00130897       0.00166736       0.00022779       0.00015602       0.00020213      -7.23025901
Cl       7.68577259       1.17246628       3.20255874      -0.36312288       0.04450145      -0.20973979       0.00063243      -0.00028002       0.00013273       0.00051970      -0.00029923       0.00013188      -5.72288662
Cl       2.65455261       2.03878303       7.47915138       0.02424204      -0.03298438       0.09533510       0.00040777       0.00137355       0.00073094       0.00023655      -0.00043331      -0.00008936      -7.21374737
Cl       3.56807779       0.90305542      10.44065472       0.19948775      -0.01904544      -0.13872061       0.00095473       0.00114105       0.00094416       0.00015816      -0.00002046       0.00035328      -7.00095550
Cl       4.89795331       2.25784536       4.79002316      -0.12349671      -0.22037925       0.34108150       0.00098413       0.00023470       0.00027680      -0.00010280      -0.00003739      -0.00023564      -6.66990115
Cl      12.80897656       9.16479035       2.06630107       0.17960082      -0.38226407      -0.00434838       0.00058589       0.00017062       0.00051379      -0.00017933       0.00000129       0.00045775      -7.17274032
Cl      13.24830213       4.07263073       7.06676412      -0.16269933       0.53746155       0.23759309       0.00057357       0.00097426       0.00063440       0.00028534      -0.00008098       0.00006529      -7.38358816
Cl      14.48625744       1.32424078       5.46559402      -0.37705983       0.25427148      -0.09430048       0.00017144       0.00014536       0.00021177      -0.00005957       0.00003799      -0.00051922      -6.95495157
Cl      15.06491291       4.38691354       4.32483266       0.21179823       0.03236429      -0.06077157       0.00063963       0.00101721       0.00063136       0.00006000       0.00050571      -0.00025187      -7.48340291
Cl       8.95654802       4.20559076       3.44090118       0.00654455       0.15152127      -0.09454310       0.00013181       0.00045895       0.00075070       0.00017058       0.00036356      -0.00008356      -6.88515170
Cl      16.56569982       3.05572728       7.09154205      -0.28623412       0.18934781      -0.16394132       0.00004537       0.00044814       0.00030364      -0.00060468      -0.00008377      -0.00056089      -6.92256723
Cl      15.43032921      15.33165827       4.37001343       0.03873080       0.35721738       0.04078556       0.00014143       0.00029296       0.00018409       0.00002024       0.00015600      -0.00034716      -6.84042260
Cl      11.95751279      12.26447970       2.34935675      -0.15852319      -0.01133735       0.08195855       0.00123866       0.00057448       0.00123709      -0.00018193      -0.00000595       0.00030045      -7.25686495
Cl      10.84151437       9.47439089       4.70873190      -0.05742984      -0.27572764       0.00977280      -0.00019830       0.00030788       0.00086920      -0.00040614      -0.00019169      -0.00004065      -6.97585727
Cl      17.73418651      15.20226084       1.99666673       0.09996680       0.09313177       0.16642035       0.00108547       0.00090378       0.00124000      -0.00047521       0.00006546      -0.00002043      -6.63181802
Cl      12.17085767      14.86854485       4.37034395      -0.33034954      -0.47308760       0.08469777       0.00009565      -0.00002123       0.00006452       0.00058152       0.00003413       0.00027995      -6.84355179
Cl      16.97699679      13.05233542      -0.34728714       0.00494650       0.22460742      -0.37867880       0.00037361       0.00110962       0.00073282      -0.00039692      -0.00047775      -0.00032451      -6.45403170
Cl       3.68972880       7.81473321       3.90523025       0.03125078      -0.16907493      -0.26318045       0.00042407      -0.00025263      -0.00044132      -0.00048688       0.00020664      -0.00000425      -6.66180336
Cl       2.29597931      12.22950619       1.76078165      -0.20393948      -0.14537244      -0.08241145       0.00074921       0.00059498       0.00097027       0.00027139      -0.00027285      -0.00004583      -6.44756020
Cl       5.27844085      13.22376658       0.76046326      -0.18427177      -0.06926065       0.21405116       0.00067679       0.00051046       0.00075791      -0.00010557       0.00011508      -0.00005964      -6.53144337
Cl       1.22008042       9.20160981       2.25690998      -0.06137341      -0.09086938       0.11683897       0.00088129       0.00082150       0.00071271       0.00028792       0.00016373      -0.00027030      -6.98113617
Cl       7.00734583       8.43713557      -0.03522297       0.01617130      -0.04481152       0.15606634       0.00123523       0.00090060       0.00118117       0.00026491      -0.00007013      -0.00003325      -7.41901035
Cl       0.19146143       9.33352229       5.41147114       0.00403947      -0.11959599       0.06615614       0.00049093       0.00093190       0.00076047      -0.00002581      -0.00016269      -0.00011701      -7.28783140
Cl       6.79192592       4.78860342       5.73279215       0.00795610       0.06899428      -0.02456561      -0.00041002       0.00036341       0.00084055      -0.00011178       0.00028106       0.00000541      -6.69254136
Cl       9.83925104       9.90792239       0.89803419      -0.07156740      -0.27843717      -0.10837669       0.00034548       0.00042007       0.00038036       0.00054127       0.00035464      -0.00012327      -7.21629418
Cl       9.71156211      12.48902969       4.82443958      -0.07784587       0.33046716       0.21457833       0.00102698      -0.00000584       0.00026208       0.00017786      -0.00011206       0.00024872      -7.03874475
Cl       6.59561582       6.84218184       2.88236070      -0.06211510      -0.08675975      -0.11749110       0.00089034       0.00104074       0.00094820      -0.00025074       0.00018652      -0.00003324      -7.15297664
Cl       7.86953530       9.91859035       3.42886013       0.31600730       0.06990965       0.07811811       0.00001119       0.00049036       0.00055264       0.00037291      -0.00002347       0.00033835      -7.01869887
Cl       3.15476085       4.95430139       2.66020481       0.21771494      -0.23499875       0.01652429      -0.00010383       0.00023309       0.00059306      -0.00042865       0.00018054      -0.00006476      -6.38620709
Cl       0.88050615       6.12649035       4.82052144       0.11166337      -0.13860433       0.27423931       0.00027510       0.00093249       0.00105732       0.00004615      -0.00020287       0.00044385      -7.40002338
Cl       3.66532068       4.99356409       6.05017090      -0.20753691      -0.05821118       0.21622304      -0.00047481       0.00066291       0.00091392      -0.00033987       0.00040916       0.00053616      -6.92278338
Na       5.89850960      14.17049137      14.66540124      -0.44031293       0.18903462       0.12511215       0.00124852       0.00140484       0.00060305       0.00036214       0.00008718       0.00004466      -6.74377407
Na       1.58549752      15.68312801      15.24163891       0.28353037       0.02389154      -0.26531520       0.00104328       0.00099504       0.00142131      -0.00003561      -0.00031029      -0.00009442      -6.26722020
Na      13.09785388      13.40467890       9.32340276       0.01108910       0.00189331      -0.00688297       0.00121951       0.00046879       0.00046835       0.00039081      -0.00052683      -0.00025744      -7.17753170
Na      14.52274671       7.62022335      10.01061257       0.19227228       0.09340596       0.08609202       0.00047008      -0.00007348       0.00092563      -0.00030626       0.00014725       0.00025243      -7.05699084
Na      11.62744692      11.26958423       7.32176998      -0.00607035       0.26737307       0.18807348       0.00074151       0.00019209       0.00057812      -0.00011625      -0.00011672      -0.00018199      -7.06532654
Na      10.66587375      12.53008069      16.30674517      -0.22012053       0.03224191      -0.05985534      -0.00002146       0.00031325       0.00055867       0.00068611       0.00000220      -0.00024930      -6.92659080
Na       7.85843117      17.50947353      14.47736604      -0.04457233      -0.24698180       0.01325278       0.00041338      -0.00017876       0.00004812      -0.00018376      -0.00018686       0.00036417      -6.48840000
Na       8.58638753      16.94971683       8.61572168       0.04841857       0.01904302       0.09173100       0.00105421       0.00106124       0.00136018       0.00031236      -0.00025528       0.00018068      -7.23786612
Na       6.16844132      12.51605075       4.36031270      -0.15944961      -0.01465146       0.05600021       0.00125135       0.00072706       0.00093726      -0.00005691       0.00039251       0.00027954      -7.19467602
Na      11.62065988       0.92589224      16.71539176       0.28996383       0.00790993      -0.35502703       0.00135236       0.00014072       0.00075588      -0.00008335       0.00016335       0.00030229      -6.66247316
Na      16.35246511       3.33360036      15.89712500       0.12848414      -0.01476099       0.27117349      -0.00006968       0.00096145       0.00008856       0.00018500       0.00025314      -0.00022673      -6.77076018
Na      16.75247925       7.98595451      13.89471804      -0.13775457       0.39566111       0.11850709       0.00047842      -0.00010333       0.00071903      -0.00028446      -0.00007401       0.00030589      -7.15952021
Na      14.27904623      12.76706420      12.25878094      -0.10477990      -0.17853164      -0.11172794      -0.00059851       0.00014526       0.00031174       0.00018984      -0.00032471       0.00053352      -6.33998655
Na      10.18123951       8.11040349      11.73390187       0.64933620       0.37914773       0.34372666       0.00155954       0.00123760       0.00041817       0.00007147      -0.00024678       0.00037812      -6.85580659
Na       8.10214151       5.34198506      17.33001135       0.25905576       0.19576663      -0.14491213       0.00001644       0.00029554       0.00060583       0.00043716       0.00019450       0.00000306      -6.99731611
Na       2.13610493       9.79478402      12.06533596       0.04815359      -0.10324359      -0.12265928       0.00085589       0.00103997       0.00147440      -0.00001037      -0.00025767       0.00023339      -6.80581695
Na      14.17232773       1.59593682       8.96365968      -0.27819236      -0.16832031      -0.18749030       0.00056512      -0.00007099       0.00106546       0.00021735       0.00016684      -0.00017277      -6.97358087