168
Lattice="17.021838562107188 0.0 0.0 0.0 17.021838562107188 0.0 0.0 0.0 17.021838562107188" Properties=species:S:1:pos:R:3:forces:R:3:stresses:R:6:energies:R:1 energy=-1144.4312481459233 stress="0.06334829195649365 -0.00043198002751901993 -0.0029447656576940483 -0.00043198002751901993 0.08557592056640673 -0.006306330435966599 -0.0029447656576940483 -0.006306330435966599 0.07099042157518409" free_energy=-1144.4312481459233 pbc="T T T"
Cl       5.21422603       0.14175337       2.07653153      -0.57752452       0.10521616       0.30025768       0.00007731       0.00048376      -0.00056383      -0.00003837       0.00061489      -0.00002500      -6.45496768
Cl       1.14780286       4.06570795       5.55660333      -0.15038279      -0.45097944      -0.25028006      -0.00035648       0.00014506       0.00049410      -0.00012032      -0.00001494      -0.00013771      -6.20576865
Cl       0.04556111       3.12376119       1.39264268       0.06240148       0.16400582      -0.14068378       0.00077821       0.00074844       0.00052570      -0.00012726       0.00044467      -0.00052154      -6.59886156
Cl       2.78141520       1.99023919       3.57380866      -0.61900443      -0.07288427       0.12161691       0.00042200       0.00022063       0.00054326      -0.00047136       0.00004880      -0.00060879      -6.64264471
Cl       2.88792206       1.67226567       0.36170979      -0.09707479      -0.08075748       0.27382802      -0.00017493      -0.00002133       0.00000856       0.00007928      -0.00034620      -0.00029640      -6.41755749
Cl       2.06785098       5.48156127       2.35782238       0.11596578       0.30505228      -0.08916445       0.00122374       0.00110804       0.00154109      -0.00028652      -0.00022114      -0.00031859      -6.85526175
Cl       5.85249360       1.76771480       4.73361341      -0.11384305       0.21503762      -0.02651748      -0.00001000       0.00049313       0.00036584      -0.00044629      -0.00033932       0.00019598      -7.29548977
Cl      13.10877081      10.15940663       6.27332621       0.17066610       0.11668309      -0.15691935       0.00057345      -0.00023304      -0.00008248      -0.00003712       0.00000090      -0.00022167      -6.09593362
Cl      16.61838025      13.21904187       8.42991774       0.10185234      -0.02312977      -0.15315446       0.00060437       0.00088106       0.00021034       0.00034786       0.00002215       0.00027457      -6.22166518
Cl      16.77015415      14.58784533      12.17803442       0.27710932       0.21284466       0.33378240      -0.00050246      -0.00025136      -0.00016914       0.00009303       0.00017452      -0.00055438      -6.98072609
Cl      14.78474817      12.64925613      13.75422399       0.33367126      -0.06848540       0.13959410       0.00031109       0.00072231       0.00067917       0.00019232       0.00056662      -0.00031597      -7.22327065
Cl      11.90918156       8.94638880      14.25446331      -0.31654514       0.06577498      -0.46386048      -0.00065272       0.00033225       0.00057182      -0.00012234      -0.00005852      -0.00003550      -6.66208499
Cl      11.06938524       7.97346701       7.32826859      -0.04489350       0.03849899      -0.30666117       0.00020815      -0.00086722       0.00031976       0.00055796       0.00005684      -0.00019016      -6.82282851
Cl      16.66698529      11.53588352      11.24890252      -0.14514231       0.34561419      -0.05199289      -0.00000614      -0.00012171       0.00001852      -0.00008360      -0.00005152      -0.00002037      -7.20539197
Cl       7.47212816       7.97070249       4.59924217      -0.04533795      -0.17241067      -0.35807389      -0.00026744       0.00031524      -0.00159861      -0.00082588      -0.00025604      -0.00045752      -6.44378898
Cl       4.18096910       4.56270420       4.83405761      -0.13457949       0.11465403       0.11317457      -0.00085679      -0.00048995      -0.00009551      -0.00059639       0.00005918      -0.00036938      -6.60426978
Cl      10.39050666       4.42124003       2.81303691       0.08404792       0.14708411      -0.15955353       0.00057913       0.00087045       0.00085153       0.00019702      -0.00024180       0.00018060      -7.58143492
Cl       9.35265513      10.23677362       5.78617820       0.26644364      -0.10314461      -0.07425438       0.00020011      -0.00051702      -0.00024385      -0.00003666       0.00047488      -0.00051267      -6.67963311
Cl      10.70879142       7.71785958       4.04711502      -0.18821452       0.05712443      -0.06496425       0.00021491       0.00133120       0.00071188      -0.00004093      -0.00005178       0.00016007      -7.38127098
Cl       4.90493204      10.09785278       4.70572648      -0.04042367      -0.16275279       0.04762583       0.00029112       0.00075616       0.00029891       0.00035890       0.00033734      -0.00006616      -6.56012068
Cl       9.31750584      10.59472263      15.47527994      -0.38282760      -0.22611541      -0.20789682      -0.00029019      -0.00094532      -0.00070581       0.00104834       0.00036646      -0.00001487      -6.28662780
Cl      12.33753212      14.83177842      12.90256984      -0.06592142      -0.22186891       0.17008140       0.00032381       0.00034770       0.00079573      -0.00012883       0.00013773      -0.00041001      -7.06077878
Cl      14.42374815      16.90115255      11.33823058      -0.00771717       0.28077541       0.39469952       0.00013130       0.00042062       0.00033807       0.00014515      -0.00009027       0.00017999      -7.14930085
Cl       7.14589491      14.35411671      14.60682731       0.23261252       0.08299702       0.09441711       0.00082467       0.00068605       0.00025942       0.00029705      -0.00025984       0.00007600      -7.15741457
Cl       7.57404495      15.74177277      17.55366732      -0.05929315      -0.04233494       0.14361997       0.00018204       0.00068655       0.00045745      -0.00038172       0.00047146       0.00033590      -6.79126105
Cl      12.11905793      17.30195089      15.09635131      -0.48947631       0.31507122      -0.34880638       0.00043101       0.00090391       0.00005710      -0.00028286       0.00017569       0.00037639      -6.80117650
Cl      12.31432944      11.85459220      15.61754118      -0.12553363      -0.16626875      -0.36279639       0.00036849       0.00073389       0.00063586      -0.00043696       0.00008699      -0.00038954      -6.62366554
Cl      10.31638689      14.50350789      16.35358447       0.50665196      -0.04019562      -0.07980542       0.00105997       0.00132114       0.00114341      -0.00038417       0.00006911       0.00020735      -6.91722640
Cl      12.25308323      11.55993535      11.85576709      -0.09080102      -0.10275683       0.14823806      -0.00006802       0.00056203       0.00074336       0.00000366       0.00009437       0.00015089      -7.16556567
Cl       6.59189420      11.10159196      13.73932862      -0.04509692       0.31426778      -0.17251733       0.00097574       0.00114009       0.00125097       0.00011697      -0.00001206       0.00001888      -7.45058144
Cl       2.23327323      12.31464842      13.07035611       0.53494595      -0.10168600      -0.06923250       0.00014374       0.00015826      -0.00018596      -0.00009332       0.00034964       0.00000097      -7.19573177
Cl       1.70503032       9.16833489      11.90242101       0.35219664      -0.43693927       0.07963367      -0.00076547       0.00026164       0.00020583      -0.00011603      -0.00036494       0.00014640      -7.24089643
Cl       4.29562950      12.64079267      15.64890437       0.29149641      -0.02069960      -0.06603911       0.00128146       0.00048857       0.00110985      -0.00041083      -0.00000363      -0.00000528      -6.56948456
Cl       9.89247732      12.92119380      13.53918578       0.07698946      -0.19467864      -0.01486454      -0.00036756      -0.00091163      -0.00067763       0.00069092      -0.00010086      -0.00007958      -6.33592629
Cl       4.40446169      10.86180426      11.19088643      -0.07300469      -0.15465806       0.30058916       0.00031182       0.00049860       0.00060589      -0.00009757       0.00036754       0.00023643      -7.35676304
Cl       7.83639205      12.74811709      11.14919688      -0.17000279       0.28202973      -0.17210418       0.00055191       0.00109429      -0.00026047      -0.00061459      -0.00045208       0.00000905      -6.99303581
Cl      12.29270085       4.63879195      15.70907990      -0.09433921       0.50146203       0.09319774      -0.00007040       0.00095838      -0.00000219      -0.00019226      -0.00038504      -0.00073664      -6.69292839
Cl       3.76291795       7.73628797      17.04402390       0.11853727       0.44137720       0.18212192      -0.00035709       0.00107357      -0.00026850       0.00027757      -0.00038736       0.00026291      -6.42189310
Cl      10.07233001       6.43998449      13.16706026       0.11596491       0.18688544      -0.02773748       0.00062520       0.00050489      -0.00055505      -0.00124300       0.00025054       0.00033534      -6.70381486
Cl      11.34278987       0.80273279      11.98603825       0.03672747      -0.11513461       0.21471607      -0.00062735      -0.00007198      -0.00059334      -0.00028964      -0.00038043      -0.00052259      -6.74234798
Cl       4.43397418       7.54210753      11.98142148       0.16496963       0.57367517       0.15514527      -0.00030962       0.00014065       0.00021241      -0.00001972       0.00043479       0.00006202      -6.78083027
Cl       6.95844604       9.02004107      10.62994469      -0.04019512      -0.18211087      -0.02549117      -0.00029459       0.00082195       0.00015814      -0.00012963       0.00004648      -0.00022261      -6.83178748
Cl       7.12936795       7.80941746      13.79206485       0.53930434       0.27273600      -0.12146121       0.00093004       0.00122607       0.00089447       0.00025202      -0.00012305       0.00010524      -7.02805056
Cl       9.56159776       6.79872069       9.95564922       0.14820935       0.27961863      -0.09219161       0.00003385       0.00078097      -0.00001214       0.00083026       0.00004941      -0.00041844      -6.84198381
Cl      10.91334231       1.98028839      17.53535884       0.13289468       0.03359278      -0.11329236       0.00042256      -0.00032558       0.00077875       0.00007833       0.00000459       0.00098022      -6.87953866
Cl      10.22756169       3.04084428      13.99293954      -0.46105475      -0.17972078       0.06370838      -0.00009977       0.00003184      -0.00019575      -0.00053734       0.00016384      -0.00060055      -6.79055465
Cl      13.62895230       2.65727045      13.18190111       0.13176789       0.52012935       0.46491271       0.00026695       0.00104552       0.00113110       0.00003334      -0.00035355      -0.00068559      -7.22928463
Cl       5.96983194       1.41297320      16.24761312      -0.15831074       0.06243459       0.38806085       0.00019185      -0.00016779      -0.00021764       0.00071613       0.00041778      -0.00060185      -6.79819940
Cl       6.44162588       6.05605229      16.47065665       0.28488615      -0.36690590       0.55721519      -0.00068744      -0.00058691       0.00061295      -0.00047888      -0.00048794      -0.00007489      -6.36422666
Cl       8.79800851       0.32327786      14.91597312       0.13791899      -0.24398308       0.82011311       0.00069831       0.00086931       0.00106175       0.00005182       0.00019282      -0.00028712      -7.18597316
Cl      12.82100156      13.16356718       1.47274065      -0.17169693       0.19152207      -0.09231905       0.00094141      -0.00058086      -0.00010585      -0.00003722       0.00008330      -0.00000613      -6.37793727
Cl      13.91892934       8.01901191       4.00054682       0.24625815       0.03790138      -0.24424798       0.00022135       0.00075313       0.00060783      -0.00024992       0.00024893       0.00002437      -6.48829947
Cl      15.67815301       6.24524379       1.91393916       0.09183454      -0.49919969       0.20512945       0.00106853       0.00082138       0.00038275      -0.00045048       0.00020355      -0.00022257      -6.83298517
Cl       9.69388009      16.80965199       2.77221387       0.08529528      -0.58403699       0.27729851      -0.00015081      -0.00017045       0.00033611      -0.00008973       0.00014636      -0.00022439      -6.65244780
Cl      13.17810018       9.91005746       1.35722583      -0.04855181      -0.11345280      -0.04824303      -0.00026056       0.00012040       0.00050138      -0.00020489       0.00043232       0.00008357      -6.62109249
Cl      16.29898692       9.54918344       2.22225534       0.11115024      -0.07709479       0.11620747       0.00016500       0.00091416       0.00094047       0.00003185      -0.00007705       0.00015704      -6.32295183
Cl       9.96555993       9.67690318       1.43458914       0.27910415       0.06398001       0.18666223       0.00014393       0.00057094      -0.00012515      -0.00031544      -0.00006287      -0.00016109      -6.65569897
Cl       5.56007018       2.55943055       9.76369833       0.04156739       0.00812439       0.18667606       0.00124082       0.00156386       0.00110560       0.00000757       0.00020295       0.00013091      -7.30771636
Cl       9.19258189       3.49235705       8.98936855      -0.11372467      -0.27342709      -0.19539980       0.00124039       0.00115514       0.00099686       0.00012707      -0.00003614      -0.00017265      -7.49435257
Cl      12.02177943       5.15508749       8.35354480      -0.26139320       0.20813710      -0.39716918      -0.00015491      -0.00056977      -0.00050537       0.00035823      -0.00007010       0.00012139      -7.08438297
Cl       8.21956974       1.79359057      11.67355396       0.09098539      -0.05144893      -0.13300922       0.00060550       0.00036858       0.00099372       0.00008959      -0.00007857       0.00002384      -7.32769928
Cl       4.42554581       4.33561284      12.38701043       0.15198573      -0.10298204      -0.11809831       0.00068564       0.00043311       0.00090051      -0.00003169      -0.00011175      -0.00019360      -6.81878752
Cl      13.01848681       2.21769152       9.62395652       0.17247834       0.15660372      -0.20409785      -0.00005500      -0.00005993      -0.00034553       0.00011249       0.00008325       0.00043951      -6.83752103
Cl      13.50461102       3.80010006       1.53559541       0.59378055      -0.44423965      -0.16053145       0.00063922       0.00049679       0.00019050       0.00031638      -0.00058443      -0.00010857      -7.09304961
Cl      11.61509880       2.38316945       6.79893378       0.09788700       0.16918892      -0.37378285       0.00064680       0.00046600      -0.00017896      -0.00060227      -0.00074595      -0.00028516      -7.14154440
Cl       9.51927880       5.33433221       6.18885256      -0.32320164       0.15461229      -0.51879777       0.00056780       0.00116372       0.00110008      -0.00003620      -0.00019846      -0.00051312      -7.56186061
Cl      14.98644499       0.81324820       2.32954170      -0.23400583       0.06629024       0.04790147      -0.00006919       0.00027219       0.00067814      -0.00028900      -0.00024577      -0.00020410      -6.32277030
Cl       9.04660273       2.21876405       4.90216794      -0.14507777       0.32468765      -0.07480198      -0.00018411       0.00041930       0.00041962       0.00033368      -0.00032608       0.00022159      -7.33290838
Cl      15.36860117       3.54360467       4.13510086      -0.23410598      -0.03142083      -0.34829851       0.00025236       0.00112795      -0.00048330      -0.00034529      -0.00016195       0.00013286      -6.51495319
Cl      14.36893924      17.72468747       5.70750924      -0.10761387       0.07523422      -0.47769171       0.00064251       0.00088623       0.00069230       0.00030943      -0.00031369       0.00009540      -6.74607967
Cl      15.41911361      15.12444879       0.50107212      -0.24029504       0.08299927      -0.03592577       0.00047098       0.00075645       0.00046450       0.00005933      -0.00010841       0.00035169      -6.04900076
Cl      15.78168670      14.71400126       5.70090070      -0.61128614      -0.14102945      -0.02795435       0.00066740       0.00037309       0.00062759       0.00065244       0.00011008      -0.00017106      -5.68217242
Cl      17.51286837      16.83255536       4.07830355       0.03753420       0.25299483      -0.08531296       0.00018502       0.00059101       0.00085971       0.00039664       0.00013620      -0.00043905      -5.57739684
Cl      10.45172282      16.49629893       6.02052354      -0.01751167      -0.10961220       0.21103199       0.00113338      -0.00002748       0.00074009      -0.00026764      -0.00010386       0.00004813      -7.10618349
Cl       0.59315236      13.71837298      15.42098606      -0.06484013       0.35588958       0.29928699       0.00105356       0.00088269       0.00077133      -0.00029064       0.00047242       0.00002648      -6.88048283
Cl       3.50903956      16.75692128      10.10168986      -0.22905813       0.14486484      -0.07383186       0.00031793       0.00020646       0.00173088      -0.00011513       0.00007126       0.00007045      -6.85159715
Cl       2.29903035      13.81218481      10.19998954      -0.07746472       0.03232840       0.03148958       0.00059150       0.00004878       0.00062201      -0.00014135      -0.00012816      -0.00033452      -7.26830675
Cl       0.15883140      18.00909028      12.72620026       0.23675710      -0.21754085       0.07254685       0.00094444       0.00090889       0.00084380       0.00019538      -0.00033684      -0.00005851      -7.36509708
Cl       0.71865420      17.00496644      15.80282910       0.02968200       0.00555873       0.04980551       0.00056132       0.00068440       0.00061314      -0.00010496      -0.00063625      -0.00041073      -6.54580899
Cl       2.51800804      15.61443150      13.25484839       0.17386758       0.49181568      -0.13604745      -0.00004176      -0.00000732       0.00079966      -0.00045234      -0.00024142      -0.00009350      -6.89389094
Cl       0.17590695      16.47969539       9.67766826       0.17106316      -0.18922826       0.07759391       0.00075449       0.00047051      -0.00018951       0.00037888       0.00067826       0.00036734      -6.66752511
Cl       4.10183571      15.84443486      16.10570039       0.16302617      -0.22113620      -0.14699493       0.00134004       0.00031132       0.00108873      -0.00017762      -0.00005141      -0.00037760      -6.36316803
Cl      10.29777485      13.27621377       6.01350591      -0.09967596      -0.12183602      -0.33548393       0.00070897      -0.00012405       0.00101282      -0.00062091       0.00039368       0.00007568      -6.64012853
Cl       5.01800272      13.96400267      12.20819863       0.37965477      -0.11523847      -0.11075810       0.00006181       0.00078530       0.00060286      -0.00060873       0.00008992       0.00031062      -7.23555752
Cl      12.75523112      14.93834286       4.25656141      -0.23663792       0.18004132       0.23286840       0.00118974       0.00164546       0.00103459      -0.00019823       0.00015575       0.00018191      -6.89185005
Cl       8.22446354      14.63521641       7.99698981       0.11168112      -0.01963462       0.03141486       0.00018756       0.00069783       0.00039761      -0.00084398       0.00040886       0.00046388      -7.24152928
Cl      10.02746162      17.20560363       9.19044817      -0.04438063       0.13875475       0.00416861       0.00063778       0.00108096       0.00001745      -0.00027690      -0.00066940       0.00028312      -7.23536216
Cl       9.47837087      13.60273414       2.57586744      -0.23394247      -0.05212317       0.03104224       0.00148077       0.00057312       0.00152852       0.00013338      -0.00013681      -0.00003243      -6.95033815
Cl      14.91670733       1.92462798      16.13343073      -0.09726121      -0.50039518       0.00690358       0.00137494       0.00123160       0.00099272      -0.00011510      -0.00032839      -0.00003993      -7.14206666
Cl      16.58386482       7.25769661      13.45367058       0.02618578       0.16895797      -0.07604673      -0.00086136      -0.00064711       0.00083151       0.00015329      -0.00017686       0.00039009      -6.92712775
Cl      17.11177374      10.34164569      14.50001568      -0.30680365      -0.18698569       0.20993482       0.00059091       0.00072374       0.00028055      -0.00029160      -0.00001500      -0.00025014      -7.43425786
Cl      15.45867658       5.24068406      15.84790089      -0.29604998       0.11243385      -0.02897141       0.00031529       0.00067058       0.00089873      -0.00017764       0.00004733       0.00021464      -7.07083629
Cl      16.18094273       2.54217009       9.90014023       0.26833043       0.21299347       0.81569558      -0.00035682       0.00047210       0.00022485      -0.00026146      -0.00040788       0.00045115      -6.68084297
Cl      17.62509431       7.75464629      16.74650342       0.10203261      -0.11893046      -0.11261276      -0.00035617       0.00116127       0.00111262      -0.00007506       0.00009698       0.00011589      -6.86928785
Cl       5.16117754      15.72987145       7.25200140      -0.02799088      -0.23045368       0.24320573       0.00011930       0.00031654       0.00004810       0.00040162      -0.00045507       0.00005306      -6.93214820
Cl       4.63248646      10.88803485       1.54726433      -0.02989171      -0.04000170      -0.27965703       0.00005328       0.00094394       0.00049163      -0.00003842       0.00001554       0.00022321      -6.15634902
Cl       7.32696849      12.44570393       0.18599182       0.31041372       0.16132236      -0.05371170       0.00089553       0.00030684       0.00035816       0.00008171       0.00025874       0.00023219      -6.88397004
Cl       1.84670627      15.43684800       7.16961947       0.01722874       0.13480380      -0.06405336       0.00058574       0.00078609       0.00048463      -0.00034052       0.00073421       0.00023563      -6.58455185
Cl       7.57441292      10.95289549       3.09590392       0.02063146      -0.10906902       0.19814148       0.00006737       0.00069365       0.00029951       0.00023561       0.00046444       0.00011379      -6.80367185
Cl       3.61050494      15.78653124       4.46452212       0.09158388      -0.14850798      -0.21161154       0.00061827       0.00122892      -0.00017011       0.00025618       0.00020132      -0.00003325      -5.89813092
Cl       5.68995474       6.22420050       9.35092263      -0.07138688      -0.05961942       0.13816305       0.00014034       0.00049548      -0.00042022      -0.00028875      -0.00029957      -0.00004946      -6.74177753
Cl       0.23508681       1.36111723       7.04005355       0.08679017       0.01183545      -0.34366158       0.00058545       0.00058363       0.00045756       0.00024617       0.00008583      -0.00013177      -6.42370107
Cl       2.28401763       2.64174522      10.57432757      -0.33848236       0.04368839       0.36459297       0.00031208       0.00034711       0.00134854      -0.00014927      -0.00018952       0.00015488      -6.61769122
Cl       2.75700369       7.77598550       8.96135504       0.28984626       0.25145926       0.11474042       0.00081304      -0.00008824       0.00048995       0.00053553       0.00026813       0.00001601      -6.99377418
Cl       1.63081548       5.80982723      11.18194534      -0.09801484       0.03626968       0.05875632       0.00080722       0.00043914       0.00021542       0.00046394       0.00022928      -0.00036991      -7.11253675
Cl       6.55416454       4.14344936       7.02238353      -0.11237270       0.09033617       0.17991538       0.00078968       0.00094812       0.00016797       0.00004696      -0.00004311       0.00005533      -7.28342734
Cl       7.90265212      11.26037881       8.39556121       0.58610286       0.34504478      -0.00568183      -0.00038384       0.00013377      -0.00075458      -0.00054901       0.00011584       0.00030591      -6.47702789
Cl       3.40988780      12.63081130       6.39099281      -0.06993701      -0.06036652       0.14210352       0.00094227       0.00127622       0.00112581      -0.00013092      -0.00020331       0.00020110      -6.14348557
Cl       2.02893916       9.33154090       6.10115036       0.36982634      -0.13286558       0.27490392       0.00082203       0.00090526       0.00040591      -0.00009973       0.00013882      -0.00001428      -5.59422628
Cl       5.31673725      13.13255062       9.05486881       0.18606851       0.54516185      -0.17989654       0.00051330       0.00014445       0.00007774       0.00040872      -0.00008368       0.00020558      -7.19104084
Cl       4.95123421      10.04149157       8.00423692      -0.08146506      -0.32770184       0.13504717       0.00041372       0.00045177       0.00063077      -0.00042037      -0.00003255      -0.00030496      -7.32619227
Cl      17.20418733       5.68540030       8.19679777       0.09517925      -0.08523094       0.21131961       0.00025601       0.00070304       0.00061172      -0.00057691       0.00002661       0.00020193      -6.60992831
Cl      14.36244393       7.22470229       7.33865404       0.32086008       0.14615708       0.13170572       0.00091284       0.00111210       0.00151837       0.00030048      -0.00003029      -0.00009306      -6.93220358
Cl      14.59267476       5.38157843      10.28334067      -0.06905221      -0.01284377      -0.46535144       0.00057683       0.00079894       0.00042358      -0.00002019      -0.00012688       0.00032793      -7.36561195
Na       2.35695258       8.76865768       2.84517708      -0.10148913      -0.07342064      -0.05546059       0.00042680       0.00065459       0.00085803      -0.00017290       0.00019242       0.00033288      -6.29787721
Na       5.09823022       6.97048549       2.78404251       0.27669151       0.21036893      -0.09942856       0.00005012       0.00078750       0.00038156       0.00018242      -0.00089328       0.00006641      -6.94427308
Na      14.26210441      10.60869091       9.29051182       0.16411369       0.26561241       0.06337403       0.00023034       0.00089591       0.00051764       0.00000306      -0.00035155       0.00018002      -6.75300831
Na      15.45084533      11.79702266      16.98346557      -0.09226924      -0.02509219      -0.28161628       0.00044373       0.00070649       0.00080679       0.00028586       0.00026591      -0.00008712      -6.98436685
Na      14.16061697      13.76929379      10.42354157       0.07478266      -0.24192066       0.23076184       0.00006148       0.00049901       0.00020954      -0.00033539       0.00035276      -0.00005883      -7.13592687
Na      12.17996941       6.79619989       1.15495479      -0.39184000       0.67386764       0.45989498       0.00167032       0.00067748       0.00120711      -0.00019982      -0.00002675       0.00002323      -7.16094890
Na       7.26028113       4.71214205       3.89157117       0.25487018       0.18706480       0.01695232      -0.00029106       0.00002222      -0.00006212       0.00038865      -0.00004213      -0.00001342      -7.20456826
Na       4.76955000       7.25797897       6.35533524      -0.18588803      -0.37015360      -0.16808267       0.00082988      -0.00004761       0.00050799      -0.00038703      -0.00002993      -0.00030181      -6.96946474
Na       9.03811136      15.63559567      12.14304997      -0.03024988       0.13240133      -0.00532144       0.00030999      -0.00046522       0.00041041       0.00023817      -0.00038415      -0.00007606      -7.05922392
Na       1.69733844      10.95534139      17.23658639      -0.27787213      -0.21798372      -0.18940776       0.00060274       0.00126706       0.00080926      -0.00013446      -0.00056012      -0.00020066      -6.50755251
Na       9.16981137       4.45301535      16.74265441      -0.60086916      -0.27565358       0.01408754      -0.00013218      -0.00075315       0.00037886       0.00020994      -0.00007339       0.00085092      -6.58839534
Na       2.46609621       6.43610231      14.31587798       0.29338071       0.27551389      -0.19494882      -0.00007483       0.00074697       0.00017243       0.00019170      -0.00033304       0.00052747      -6.64448820
Na       3.64928220       9.65193579      14.47237725       0.17069697       0.01444632      -0.04514051       0.00141150       0.00048831       0.00069156       0.00012972      -0.00027988      -0.00012355      -7.09604164
Na      14.72690339      12.00787936       3.96114851      -0.16009881      -0.09355912      -0.24809097       0.00059800       0.00118323       0.00127663       0.00021825      -0.00013479      -0.00007676      -6.06040762
Na       3.24500336       1.63071344      13.87244191      -0.07574314      -0.10417230      -0.16648160       0.00028869      -0.00034078       0.00115902      -0.00067368       0.00032260       0.00019935      -6.79809068
Na      12.11574182       1.71528352       3.63201238       0.01637565       0.32919681       0.51690066       0.00016484       0.00090253       0.00027973       0.00014022      -0.00012780       0.00008010      -7.26694092
Na      12.43097822      16.28721988       1.18723322       0.10831067       0.26829909      -0.37994167      -0.00029892      -0.00051957       0.00048482       0.00008771      -0.00016471       0.00043829      -6.27245012